/*--------------------------------*- C++ -*----------------------------------*\
  =========                 |
  \\      /  F ield         | OpenFOAM: The Open Source CFD Toolbox
   \\    /   O peration     | Website:  https://openfoam.org
    \\  /    A nd           | Version:  7
     \\/     M anipulation  |
\*---------------------------------------------------------------------------*/
FoamFile
{
    version     2.0;
    format      ascii;
    class       volVectorField;
    location    "0.1";
    object      U;
}
// * * * * * * * * * * * * * * * * * * * * * * * * * * * * * * * * * * * * * //

dimensions      [0 1 -1 0 0 0 0];

internalField   nonuniform List<vector> 
16128
(
(3 -1.61275e-17 0)
(3 3.64258e-17 0)
(3 1.09898e-16 0)
(3 3.76866e-16 0)
(3 -5.3387e-16 0)
(3 -5.11027e-16 0)
(3 -3.53646e-16 0)
(3 3.28959e-16 0)
(3 6.26589e-17 0)
(3 1.89255e-16 0)
(3 4.59834e-16 0)
(3 4.63388e-16 0)
(3 8.45271e-16 0)
(3 5.13367e-16 0)
(3 2.96267e-16 0)
(3 4.15844e-16 0)
(3 6.19207e-16 0)
(3 1.20822e-16 0)
(3 -3.72764e-16 0)
(3 2.42805e-16 0)
(3 2.06965e-16 0)
(3 2.3213e-17 0)
(3 5.34443e-17 0)
(3 5.84645e-16 0)
(3 6.79572e-16 0)
(3 6.42514e-16 0)
(3 8.44473e-16 0)
(3 8.93713e-16 0)
(3 7.48512e-16 0)
(3 6.16825e-16 0)
(3 8.99611e-17 0)
(3 -7.77185e-16 0)
(3 -1.03576e-16 0)
(3 6.71268e-16 0)
(3 6.6725e-16 0)
(3 3.929e-16 0)
(3 6.97988e-16 0)
(3 9.1093e-16 0)
(3 1.75295e-15 0)
(3 9.86169e-16 0)
(1.15704 -1.03681e-05 0)
(0.117827 -1.10088e-07 0)
(0.0259816 1.12592e-05 0)
(0.0446482 3.39439e-05 0)
(0.0424588 6.39014e-05 0)
(0.0263317 0.00010143 0)
(0.0120253 0.000125565 0)
(2.57829e-05 0.00013421 0)
(3 -2.46156e-17 0)
(3 -9.47672e-17 0)
(3 -2.4603e-16 0)
(3 -5.30926e-16 0)
(3 -9.94036e-16 0)
(3 -6.93177e-16 0)
(3 -3.37081e-16 0)
(3 -1.62614e-17 0)
(3 4.15507e-16 0)
(3 4.01216e-16 0)
(3 1.36646e-15 0)
(3 2.10699e-15 0)
(3 2.2222e-15 0)
(3 1.75323e-15 0)
(3 1.21685e-15 0)
(3 9.2933e-16 0)
(3 3.37892e-16 0)
(3 -9.36836e-16 0)
(3 -1.55418e-15 0)
(3 -1.19917e-15 0)
(3 3.10619e-16 0)
(3 4.29472e-16 0)
(3 8.9555e-17 0)
(3 8.14447e-16 0)
(3 1.81483e-15 0)
(3 2.10117e-15 0)
(3 2.65314e-15 0)
(3 2.74121e-15 0)
(3 2.01097e-15 0)
(3 1.44884e-15 0)
(3 1.39067e-16 0)
(3 -1.37537e-15 0)
(3 -1.21329e-15 0)
(3 6.44859e-16 0)
(3 1.11082e-15 0)
(3 7.88911e-16 0)
(3 9.06097e-16 0)
(3 1.00342e-15 0)
(3 1.75274e-15 0)
(3 1.09044e-15 0)
(1.15697 -1.12575e-05 0)
(0.118019 0.000156454 0)
(0.0262826 0.000801306 0)
(0.0449359 0.00174612 0)
(0.04302 0.00281043 0)
(0.0267749 0.00384513 0)
(0.0122317 0.00448864 0)
(6.11322e-05 0.00473605 0)
(3 1.01355e-16 0)
(3 -7.03708e-17 0)
(3 -1.05246e-16 0)
(3 -3.07547e-16 0)
(3 -3.75249e-16 0)
(3 5.51889e-16 0)
(3 1.28423e-15 0)
(3 3.97622e-16 0)
(3 1.85376e-16 0)
(3 -4.56148e-16 0)
(3 8.13537e-16 0)
(3 2.91183e-15 0)
(3 3.00766e-15 0)
(3 2.46311e-15 0)
(3 1.77695e-15 0)
(3 8.07042e-16 0)
(3 -1.92463e-15 0)
(3 -2.46185e-15 0)
(3 -1.98408e-15 0)
(3 -1.31597e-15 0)
(3 -5.82007e-16 0)
(3 6.87841e-16 0)
(3 5.84567e-16 0)
(3 6.03666e-16 0)
(3 2.64532e-15 0)
(3 3.65707e-15 0)
(3 4.00012e-15 0)
(3 3.34254e-15 0)
(3 2.19692e-15 0)
(3 4.85951e-16 0)
(3 -1.67339e-15 0)
(3 -2.20579e-15 0)
(3 -1.91901e-15 0)
(3 -1.53951e-15 0)
(3 -8.65755e-16 0)
(3 -2.35085e-16 0)
(3 1.15227e-16 0)
(3 9.32181e-16 0)
(3 1.87629e-15 0)
(3 1.91638e-15 0)
(1.1575 0.000872633 0)
(0.120655 0.0030584 0)
(0.029142 0.0085956 0)
(0.047505 0.014314 0)
(0.046906 0.0200242 0)
(0.0294829 0.024473 0)
(0.0135324 0.0270952 0)
(0.000341378 0.0282525 0)
(3 5.37584e-17 0)
(3 1.87268e-16 0)
(3 4.70518e-16 0)
(3 -1.61884e-16 0)
(3 -2.77936e-16 0)
(3 -3.40885e-17 0)
(3 4.5164e-16 0)
(3 2.67883e-16 0)
(3 -2.16406e-16 0)
(3 -4.36155e-16 0)
(3 3.4476e-16 0)
(3 1.39091e-15 0)
(3 2.30132e-15 0)
(3 1.2483e-15 0)
(3 6.32528e-16 0)
(3 3.61803e-16 0)
(3 -3.91681e-16 0)
(3 -8.5711e-16 0)
(3 -8.61014e-16 0)
(3 -9.73595e-16 0)
(3 -1.07078e-15 0)
(3 1.86421e-17 0)
(3 7.61418e-16 0)
(3 9.66503e-16 0)
(3 1.19199e-15 0)
(3 1.69052e-15 0)
(3 2.79032e-15 0)
(3 2.25594e-15 0)
(3 1.19913e-15 0)
(3 3.89953e-16 0)
(3 -1.37917e-15 0)
(3 -2.03407e-15 0)
(3 -2.79335e-15 0)
(3 -2.80387e-15 0)
(3 -2.64542e-15 0)
(3 -6.8094e-16 0)
(3 6.29122e-16 0)
(3 1.29273e-15 0)
(3 2.24887e-15 0)
(3 1.65021e-15 0)
(1.16931 0.0109236 0)
(0.1315 0.0183334 0)
(0.038278 0.0328397 0)
(0.0550387 0.0457114 0)
(0.0567677 0.0576049 0)
(0.0356288 0.0654862 0)
(0.0168233 0.0695768 0)
(0.00121111 0.0717938 0)
(3 -2.2601e-17 0)
(3 -2.11159e-16 0)
(3 -2.26472e-16 0)
(3 -9.66668e-17 0)
(3 -4.7942e-16 0)
(3 -1.56728e-15 0)
(3 -1.36032e-15 0)
(3 -5.05229e-16 0)
(3 -5.95808e-16 0)
(3 -2.15114e-16 0)
(3 5.65866e-17 0)
(3 2.56013e-16 0)
(3 1.51566e-15 0)
(3 8.91516e-16 0)
(3 -3.89322e-16 0)
(3 -1.2907e-15 0)
(3 -8.04503e-16 0)
(3 2.85199e-16 0)
(3 -9.71772e-17 0)
(3 -1.33915e-15 0)
(3 -2.00947e-15 0)
(3 -2.4511e-15 0)
(3 -1.48915e-15 0)
(3 -3.12932e-16 0)
(3 1.36544e-16 0)
(3 3.7393e-16 0)
(3 5.71734e-16 0)
(3 2.86665e-16 0)
(3 6.65699e-16 0)
(3 5.39395e-16 0)
(3 4.27008e-16 0)
(3 -7.87796e-16 0)
(3 -1.5539e-15 0)
(3 -1.64521e-15 0)
(3 -7.70588e-16 0)
(3 2.99952e-16 0)
(3 1.36746e-15 0)
(3 1.80339e-15 0)
(3 2.02949e-15 0)
(3 1.2882e-15 0)
(1.21936 0.0433447 0)
(0.153742 0.054181 0)
(0.0536101 0.0703566 0)
(0.0679036 0.0873887 0)
(0.0706976 0.10317 0)
(0.0438494 0.111705 0)
(0.0220913 0.115154 0)
(0.00271363 0.117846 0)
(3 1.18352e-17 0)
(3 -2.64426e-16 0)
(3 -3.262e-16 0)
(3 -1.37713e-16 0)
(3 -2.06082e-16 0)
(3 2.66583e-16 0)
(3 6.60922e-16 0)
(3 2.15298e-16 0)
(3 -4.74743e-16 0)
(3 -4.32226e-16 0)
(3 -4.08855e-16 0)
(3 -5.17866e-16 0)
(3 1.31186e-16 0)
(3 -7.46644e-16 0)
(3 -1.84998e-15 0)
(3 -2.09374e-15 0)
(3 -1.54151e-15 0)
(3 -9.87097e-16 0)
(3 -6.88139e-16 0)
(3 -1.44915e-15 0)
(3 -3.27368e-15 0)
(3 -3.53281e-15 0)
(3 -2.12701e-15 0)
(3 -1.15676e-15 0)
(3 -8.52141e-16 0)
(3 -5.76502e-16 0)
(3 -8.97243e-16 0)
(3 -1.8922e-15 0)
(3 -1.39331e-15 0)
(3 -1.17225e-15 0)
(3 -8.4057e-16 0)
(3 -9.23006e-16 0)
(3 -8.10279e-16 0)
(3 -6.96366e-16 0)
(3 1.00801e-15 0)
(3 2.28163e-15 0)
(3 2.00113e-15 0)
(3 2.01124e-15 0)
(3 1.18642e-15 0)
(3 5.74217e-16 0)
(1.33602 0.0942183 0)
(0.190836 0.107965 0)
(0.0730125 0.112251 0)
(0.0857993 0.129443 0)
(0.0853142 0.146517 0)
(0.0518024 0.153294 0)
(0.0281953 0.154731 0)
(0.00501165 0.15713 0)
(3 -2.52475e-16 0)
(3 3.08506e-16 0)
(3 6.9562e-17 0)
(3 -6.88935e-16 0)
(3 -3.45296e-17 0)
(3 1.84199e-15 0)
(3 1.2622e-15 0)
(3 -1.54564e-16 0)
(3 -6.22133e-16 0)
(3 -2.21515e-16 0)
(3 -3.46913e-16 0)
(3 -1.06443e-15 0)
(3 -2.38367e-15 0)
(3 -1.58047e-15 0)
(3 -1.37026e-15 0)
(3 -9.42336e-16 0)
(3 2.71358e-16 0)
(3 1.23597e-16 0)
(3 -5.28311e-16 0)
(3 -1.44696e-15 0)
(3 -2.08934e-15 0)
(3 -2.02433e-15 0)
(3 -1.78056e-15 0)
(3 -1.39647e-15 0)
(3 -4.41782e-16 0)
(3 -5.20121e-16 0)
(3 -1.63074e-15 0)
(3 -1.83206e-15 0)
(3 -2.43543e-15 0)
(3 -2.01198e-15 0)
(3 -1.32723e-15 0)
(3 -4.16888e-16 0)
(3 8.83612e-16 0)
(3 1.33595e-15 0)
(3 2.08314e-15 0)
(3 1.91582e-15 0)
(3 6.46212e-16 0)
(3 4.13222e-16 0)
(3 6.94119e-16 0)
(3 -2.30766e-17 0)
(1.5395 0.147257 0)
(0.245262 0.174543 0)
(0.0984425 0.15595 0)
(0.109041 0.170974 0)
(0.0990609 0.184663 0)
(0.0578898 0.189009 0)
(0.0337959 0.187836 0)
(0.00791365 0.189777 0)
(3 -3.49644e-17 0)
(3 1.98485e-17 0)
(3 3.95545e-16 0)
(3 7.84188e-16 0)
(3 1.29235e-15 0)
(3 1.13795e-15 0)
(3 2.90552e-16 0)
(3 -2.34969e-17 0)
(3 -3.4397e-16 0)
(3 -3.77715e-16 0)
(3 -3.22163e-16 0)
(3 -1.50103e-15 0)
(3 -1.40479e-15 0)
(3 -1.22315e-15 0)
(3 -9.2401e-16 0)
(3 -4.74099e-16 0)
(3 6.49091e-16 0)
(3 7.44845e-16 0)
(3 2.85819e-17 0)
(3 -6.86606e-16 0)
(3 -6.69343e-16 0)
(3 -9.52697e-16 0)
(3 -1.47363e-15 0)
(3 -1.00832e-15 0)
(3 5.80309e-17 0)
(3 2.08375e-16 0)
(3 -2.74624e-16 0)
(3 -8.78969e-16 0)
(3 -8.84961e-16 0)
(3 -6.96078e-16 0)
(3 6.49693e-16 0)
(3 7.29866e-16 0)
(3 1.10372e-15 0)
(3 1.8744e-15 0)
(3 1.24125e-15 0)
(3 3.60729e-16 0)
(3 -1.18596e-16 0)
(3 -7.58079e-17 0)
(3 2.10261e-16 0)
(3 5.82633e-16 0)
(1.84825 0.18305 0)
(0.315817 0.247018 0)
(0.134928 0.209724 0)
(0.135235 0.216848 0)
(0.111249 0.219223 0)
(0.0635731 0.221549 0)
(0.0387629 0.21708 0)
(0.0112027 0.219471 0)
(3 1.68371e-16 0)
(3 -2.1139e-16 0)
(3 1.71765e-17 0)
(3 6.33735e-16 0)
(3 3.28167e-16 0)
(3 -2.94397e-16 0)
(3 -2.72302e-17 0)
(3 8.54161e-16 0)
(3 7.34234e-16 0)
(3 -1.68133e-16 0)
(3 -9.34075e-16 0)
(3 -1.17684e-15 0)
(3 -1.2437e-15 0)
(3 -1.70928e-15 0)
(3 -1.76255e-15 0)
(3 -9.17784e-16 0)
(3 -5.78058e-16 0)
(3 -7.76223e-16 0)
(3 -1.07791e-15 0)
(3 -1.18954e-15 0)
(3 -7.85402e-16 0)
(3 -1.89419e-16 0)
(3 -5.77166e-17 0)
(3 1.44993e-16 0)
(3 1.02644e-16 0)
(3 6.60072e-17 0)
(3 -4.44742e-16 0)
(3 -1.37321e-15 0)
(3 -9.21269e-16 0)
(3 -4.09242e-16 0)
(3 2.45814e-16 0)
(3 -4.54667e-17 0)
(3 -3.88106e-16 0)
(3 -5.05304e-16 0)
(3 -5.29524e-16 0)
(3 -7.41449e-16 0)
(3 -6.17873e-16 0)
(3 -9.05652e-16 0)
(3 -1.04333e-15 0)
(3 -1.87397e-15 0)
(2.24877 0.176576 0)
(0.429035 0.312373 0)
(0.183244 0.288316 0)
(0.170921 0.261942 0)
(0.124547 0.256611 0)
(0.0699187 0.255902 0)
(0.0443282 0.247077 0)
(0.0148451 0.251164 0)
(3 5.34028e-17 0)
(3 2.81453e-17 0)
(3 -5.27117e-16 0)
(3 -4.78956e-16 0)
(3 -9.11127e-16 0)
(3 -1.19758e-15 0)
(3 -1.14377e-15 0)
(3 3.50455e-17 0)
(3 3.96047e-16 0)
(3 -6.26959e-16 0)
(3 -2.09437e-15 0)
(3 -1.91497e-15 0)
(3 -2.65025e-15 0)
(3 -2.66834e-15 0)
(3 -2.54604e-15 0)
(3 -2.17742e-15 0)
(3 -2.01432e-15 0)
(3 -1.64049e-15 0)
(3 -1.36146e-15 0)
(3 -1.01099e-15 0)
(3 -5.19032e-16 0)
(3 -2.10865e-17 0)
(3 5.11429e-16 0)
(3 1.97618e-16 0)
(3 1.37965e-18 0)
(3 -1.64303e-16 0)
(3 -5.94469e-16 0)
(3 -8.72942e-16 0)
(3 -1.17054e-15 0)
(3 -9.89906e-16 0)
(3 3.83844e-16 0)
(3 5.23331e-16 0)
(3 -1.74946e-16 0)
(3 -8.21575e-16 0)
(3 -9.11203e-16 0)
(3 -1.83966e-15 0)
(3 -2.36796e-15 0)
(3 -2.52599e-15 0)
(3 -2.14834e-15 0)
(3 -1.7813e-15 0)
(2.66279 0.119212 0)
(0.608623 0.3725 0)
(0.250278 0.375903 0)
(0.210093 0.324455 0)
(0.140206 0.302881 0)
(0.0794452 0.296607 0)
(0.0534556 0.282991 0)
(0.0201514 0.290702 0)
(3 -2.4224e-16 0)
(3 -2.55484e-17 0)
(3 -3.54071e-16 0)
(3 -2.30995e-16 0)
(3 -4.64204e-16 0)
(3 -5.05342e-16 0)
(3 -6.06513e-16 0)
(3 -9.6504e-16 0)
(3 -4.44322e-16 0)
(3 -1.13377e-15 0)
(3 -1.37657e-15 0)
(3 -1.6384e-15 0)
(3 -2.06293e-15 0)
(3 -1.54616e-15 0)
(3 -1.32056e-15 0)
(3 -1.28466e-15 0)
(3 -3.83482e-16 0)
(3 -3.8568e-16 0)
(3 -1.63946e-16 0)
(3 9.197e-17 0)
(3 -1.44564e-16 0)
(3 -4.83354e-16 0)
(3 2.13361e-16 0)
(3 -5.69675e-16 0)
(3 -1.30514e-15 0)
(3 -1.33954e-15 0)
(3 -5.04455e-16 0)
(3 -4.02024e-17 0)
(3 -1.24368e-16 0)
(3 8.31182e-16 0)
(3 5.70653e-16 0)
(3 6.90688e-16 0)
(3 8.40955e-16 0)
(3 3.83438e-16 0)
(3 2.89528e-16 0)
(3 8.52616e-17 0)
(3 3.42991e-16 0)
(3 -2.1205e-16 0)
(3 -3.73499e-16 0)
(3 -4.12314e-16 0)
(2.95428 0.0212411 0)
(0.887742 0.438785 0)
(0.333394 0.468082 0)
(0.247727 0.403471 0)
(0.167844 0.357421 0)
(0.0994586 0.345502 0)
(0.0701992 0.329421 0)
(0.0264203 0.343883 0)
(3 -2.2375e-17 0)
(3 -2.75906e-16 0)
(3 -9.00921e-17 0)
(3 -6.5369e-19 0)
(3 3.82697e-16 0)
(3 1.14614e-15 0)
(3 1.0447e-15 0)
(3 2.42518e-17 0)
(3 -2.23114e-16 0)
(3 7.57291e-17 0)
(3 2.39635e-17 0)
(3 -8.22705e-16 0)
(3 -1.55239e-15 0)
(3 -1.0396e-15 0)
(3 1.54674e-16 0)
(3 2.35427e-16 0)
(3 -3.89633e-17 0)
(3 -3.85729e-16 0)
(3 -6.84237e-16 0)
(3 1.21959e-16 0)
(3 1.11197e-16 0)
(3 -9.71884e-17 0)
(3 -2.56408e-16 0)
(3 -4.57093e-16 0)
(3 -9.50759e-16 0)
(3 -8.79093e-16 0)
(3 -6.47928e-16 0)
(3 2.4483e-16 0)
(3 9.61993e-16 0)
(3 9.51617e-16 0)
(3 5.54671e-16 0)
(3 1.51975e-15 0)
(3 1.70939e-15 0)
(3 1.73336e-15 0)
(3 1.1332e-15 0)
(3 1.24807e-15 0)
(3 1.14684e-15 0)
(3 1.42085e-15 0)
(3 8.93795e-16 0)
(3 3.91171e-16 0)
(2.99997 0.000111097 0)
(1.3073 0.488772 0)
(0.430646 0.55662 0)
(0.27653 0.493886 0)
(0.212285 0.425101 0)
(0.132816 0.413769 0)
(0.0896023 0.393643 0)
(0.0268193 0.40957 0)
(3 1.97708e-16 0)
(3 5.24317e-16 0)
(3 8.06515e-16 0)
(3 3.09973e-16 0)
(3 2.15496e-16 0)
(3 4.81216e-16 0)
(3 7.18212e-16 0)
(3 3.33283e-17 0)
(3 -6.58248e-16 0)
(3 -8.18622e-16 0)
(3 -6.64015e-16 0)
(3 -6.75337e-16 0)
(3 -7.75093e-16 0)
(3 -7.96287e-16 0)
(3 -3.49381e-16 0)
(3 -9.11507e-17 0)
(3 -1.9161e-15 0)
(3 -1.96194e-15 0)
(3 -1.69483e-15 0)
(3 -1.1723e-15 0)
(3 -5.97818e-16 0)
(3 -4.43706e-16 0)
(3 -8.02548e-16 0)
(3 -6.36744e-16 0)
(3 -6.22436e-16 0)
(3 -3.82366e-16 0)
(3 -2.40126e-16 0)
(3 3.33207e-16 0)
(3 8.89523e-16 0)
(3 3.29152e-16 0)
(3 -8.43245e-16 0)
(3 -6.04796e-16 0)
(3 5.64497e-16 0)
(3 8.98926e-16 0)
(3 5.00004e-16 0)
(3 -4.49175e-17 0)
(3 -8.68987e-16 0)
(3 -7.89686e-16 0)
(3 -7.9254e-16 0)
(3 -1.14851e-15 0)
(3 2.13099e-09 0)
(1.93092 0.460715 0)
(0.568886 0.628142 0)
(0.321843 0.583431 0)
(0.286784 0.506891 0)
(0.201919 0.493466 0)
(0.124645 0.472687 0)
(0.0364015 0.489852 0)
(3 -8.5515e-17 0)
(3 -1.04771e-17 0)
(3 5.25197e-17 0)
(3 -1.84537e-16 0)
(3 -3.00496e-16 0)
(3 -6.25588e-17 0)
(3 6.44425e-17 0)
(3 2.49821e-17 0)
(3 -1.60837e-16 0)
(3 -9.31134e-16 0)
(3 -1.44796e-15 0)
(3 -8.08906e-16 0)
(3 -1.06176e-16 0)
(3 -1.04989e-16 0)
(3 3.2904e-17 0)
(3 -5.85742e-16 0)
(3 -9.90541e-16 0)
(3 -1.1954e-15 0)
(3 -7.71499e-16 0)
(3 -7.95051e-16 0)
(3 -9.89497e-16 0)
(3 -1.23922e-15 0)
(3 -1.24875e-15 0)
(3 -1.80962e-15 0)
(3 -1.91165e-15 0)
(3 -1.60804e-15 0)
(3 -1.29123e-15 0)
(3 -8.11147e-16 0)
(3 -7.65295e-16 0)
(3 -1.0667e-15 0)
(3 -1.13261e-15 0)
(3 -8.4776e-16 0)
(3 -3.65781e-16 0)
(3 -5.69116e-16 0)
(3 -7.97263e-16 0)
(3 -3.52969e-16 0)
(3 -1.04629e-16 0)
(3 -2.96707e-16 0)
(3 -4.61986e-16 0)
(3 1.1312e-16 0)
(3 1.07508e-14 0)
(2.69523 0.239093 0)
(0.7996 0.692218 0)
(0.418912 0.678712 0)
(0.379907 0.614931 0)
(0.264433 0.604385 0)
(0.141158 0.583846 0)
(0.0330117 0.594661 0)
(3 -1.86551e-16 0)
(3 -3.33976e-16 0)
(3 -6.01695e-16 0)
(3 -2.35275e-16 0)
(3 -3.36598e-18 0)
(3 4.61639e-17 0)
(3 -1.14607e-16 0)
(3 -2.2285e-16 0)
(3 -3.94116e-16 0)
(3 -6.93975e-16 0)
(3 -1.33898e-15 0)
(3 -9.74606e-16 0)
(3 8.45085e-16 0)
(3 1.45226e-15 0)
(3 8.01106e-16 0)
(3 3.22078e-16 0)
(3 1.57346e-15 0)
(3 1.6056e-15 0)
(3 1.10462e-15 0)
(3 3.49529e-16 0)
(3 -6.2728e-16 0)
(3 -5.88126e-16 0)
(3 -5.24989e-16 0)
(3 -1.11484e-15 0)
(3 -7.99885e-16 0)
(3 -9.32786e-16 0)
(3 -7.41024e-16 0)
(3 -1.88415e-15 0)
(3 -2.81129e-15 0)
(3 -1.43234e-15 0)
(3 1.59178e-16 0)
(3 8.37082e-17 0)
(3 4.89284e-17 0)
(3 -1.77614e-15 0)
(3 -1.6576e-15 0)
(3 1.19483e-16 0)
(3 1.59005e-15 0)
(3 1.08369e-15 0)
(3 3.07625e-16 0)
(3 6.77056e-16 0)
(3 7.50418e-16 0)
(3.0068 0.0162557 0)
(1.31055 0.728035 0)
(0.5653 0.800154 0)
(0.472786 0.759166 0)
(0.34848 0.715527 0)
(0.213754 0.686879 0)
(0.0853575 0.721507 0)
(3 -5.26907e-18 0)
(3 1.29449e-17 0)
(3 -4.41394e-16 0)
(3 -1.53418e-17 0)
(3 -2.27826e-16 0)
(3 -6.01756e-16 0)
(3 -8.44003e-16 0)
(3 -9.16647e-16 0)
(3 -9.56103e-16 0)
(3 -1.28806e-15 0)
(3 -5.53426e-16 0)
(3 8.72783e-16 0)
(3 1.71452e-15 0)
(3 1.39599e-15 0)
(3 6.20628e-16 0)
(3 8.02349e-16 0)
(3 1.47344e-15 0)
(3 1.35093e-15 0)
(3 1.1469e-15 0)
(3 8.70578e-16 0)
(3 6.53823e-16 0)
(3 1.21713e-15 0)
(3 1.33696e-15 0)
(3 1.28744e-15 0)
(3 6.69017e-16 0)
(3 9.46761e-17 0)
(3 1.16642e-16 0)
(3 -5.46492e-16 0)
(3 -1.36633e-15 0)
(3 -9.32299e-16 0)
(3 -8.73794e-16 0)
(3 -7.99864e-16 0)
(3 -1.21117e-15 0)
(3 -1.96346e-15 0)
(3 -1.94954e-15 0)
(3 3.53495e-16 0)
(3 1.20283e-15 0)
(3 2.35441e-16 0)
(3 -6.58044e-16 0)
(3 -2.41596e-16 0)
(3 -1.03311e-15 0)
(3.00007 4.73311e-05 0)
(2.23425 0.552713 0)
(0.797702 0.901656 0)
(0.551904 0.898989 0)
(0.464636 0.810906 0)
(0.305418 0.857679 0)
(0.152205 1.00888 0)
(3 -1.14237e-16 0)
(3 -8.11971e-16 0)
(3 -5.69082e-16 0)
(3 -3.64069e-16 0)
(3 -4.05285e-16 0)
(3 -4.65188e-16 0)
(3 -4.64284e-16 0)
(3 -3.17956e-16 0)
(3 1.90441e-16 0)
(3 -2.26004e-16 0)
(3 -5.62821e-17 0)
(3 6.92947e-16 0)
(3 7.62382e-16 0)
(3 7.06762e-16 0)
(3 8.81966e-16 0)
(3 7.28946e-16 0)
(3 5.01856e-16 0)
(3 6.61844e-16 0)
(3 6.93196e-16 0)
(3 1.94925e-15 0)
(3 2.18421e-15 0)
(3 1.34485e-15 0)
(3 1.12921e-15 0)
(3 8.84769e-16 0)
(3 -1.04659e-16 0)
(3 -2.69451e-16 0)
(3 -1.4865e-16 0)
(3 -1.8074e-16 0)
(3 -6.95668e-17 0)
(3 4.28797e-17 0)
(3 -1.12113e-15 0)
(3 -1.38787e-15 0)
(3 -1.4466e-15 0)
(3 -8.17585e-16 0)
(3 -8.2043e-17 0)
(3 6.64993e-16 0)
(3 4.56203e-16 0)
(3 3.88618e-16 0)
(3 5.76873e-16 0)
(3 9.18256e-16 0)
(3 -2.42057e-16 0)
(3 4.26895e-09 0)
(3.03371 0.0957349 0)
(1.2354 0.937238 0)
(0.685642 0.982717 0)
(0.652031 0.942379 0)
(0.567039 1.08006 0)
(0.65952 1.32318 0)
(3 -4.66591e-17 0)
(3 5.6449e-17 0)
(3 4.35682e-16 0)
(3 5.5184e-16 0)
(3 4.42843e-16 0)
(3 2.82061e-16 0)
(3 1.73712e-16 0)
(3 6.81633e-17 0)
(3 -1.38258e-16 0)
(3 1.03748e-15 0)
(3 1.64797e-15 0)
(3 1.08773e-15 0)
(3 7.65534e-16 0)
(3 1.30488e-15 0)
(3 1.47112e-15 0)
(3 8.70456e-16 0)
(3 6.86896e-16 0)
(3 1.11375e-15 0)
(3 9.81611e-16 0)
(3 9.77972e-16 0)
(3 1.28411e-15 0)
(3 6.92439e-16 0)
(3 1.7836e-16 0)
(3 -9.16163e-16 0)
(3 -1.25501e-15 0)
(3 -1.95731e-15 0)
(3 -2.2162e-15 0)
(3 -1.51613e-15 0)
(3 -6.4038e-16 0)
(3 -9.4553e-16 0)
(3 -1.07806e-15 0)
(3 -2.38749e-15 0)
(3 -2.17493e-15 0)
(3 -4.32897e-16 0)
(3 8.38421e-16 0)
(3 1.09348e-15 0)
(3 9.38752e-16 0)
(3 1.47952e-15 0)
(3 1.58114e-15 0)
(3 1.28881e-15 0)
(3 1.15289e-17 0)
(3 4.24117e-14 0)
(3.00286 0.00138966 0)
(2.24323 0.667556 0)
(0.980929 1.06916 0)
(0.808674 1.11715 0)
(0.874657 1.16375 0)
(1.10142 1.25897 0)
(3 -1.69234e-16 0)
(3 6.25084e-16 0)
(3 8.94169e-16 0)
(3 1.01833e-15 0)
(3 6.59252e-16 0)
(3 1.87676e-16 0)
(3 -2.00617e-17 0)
(3 -5.71135e-16 0)
(3 -3.20721e-16 0)
(3 1.00143e-15 0)
(3 2.14845e-15 0)
(3 1.80348e-15 0)
(3 1.02658e-15 0)
(3 5.56227e-16 0)
(3 6.90403e-16 0)
(3 5.1534e-16 0)
(3 4.44115e-16 0)
(3 -2.52268e-16 0)
(3 -3.67512e-16 0)
(3 -6.92628e-16 0)
(3 -7.73085e-16 0)
(3 4.89812e-18 0)
(3 -3.66778e-16 0)
(3 1.30938e-16 0)
(3 -4.25751e-16 0)
(3 -1.38227e-15 0)
(3 -2.9884e-15 0)
(3 -2.83575e-15 0)
(3 -2.4142e-15 0)
(3 -2.04018e-15 0)
(3 -1.97417e-15 0)
(3 -1.66236e-15 0)
(3 -1.26108e-15 0)
(3 -3.4028e-16 0)
(3 -1.80141e-16 0)
(3 3.19838e-16 0)
(3 1.05653e-15 0)
(3 5.78693e-16 0)
(3 3.97655e-16 0)
(3 -3.95214e-16 0)
(3 -1.40268e-15 0)
(3 -8.59017e-16 0)
(3 1.77256e-06 0)
(3.02239 0.0953428 0)
(1.5912 1.01977 0)
(1.02326 1.22595 0)
(1.10601 1.21066 0)
(1.37915 1.21466 0)
(3 2.50824e-16 0)
(3 4.06552e-17 0)
(3 1.80709e-16 0)
(3 -2.5565e-16 0)
(3 -3.38103e-16 0)
(3 2.66114e-16 0)
(3 -1.12188e-16 0)
(3 -3.32656e-16 0)
(3 1.12076e-15 0)
(3 1.23746e-15 0)
(3 6.68231e-16 0)
(3 1.0822e-16 0)
(3 -4.1215e-16 0)
(3 -1.72865e-16 0)
(3 5.33649e-16 0)
(3 4.98522e-16 0)
(3 -9.70483e-16 0)
(3 -1.24223e-15 0)
(3 -1.61226e-15 0)
(3 -1.58269e-15 0)
(3 -1.59008e-15 0)
(3 -1.44062e-15 0)
(3 -1.30173e-15 0)
(3 -3.44176e-16 0)
(3 2.8878e-16 0)
(3 3.19884e-16 0)
(3 -3.8057e-16 0)
(3 -3.87661e-16 0)
(3 -5.56355e-16 0)
(3 -3.78452e-16 0)
(3 -5.14317e-16 0)
(3 -8.71823e-16 0)
(3 -1.13972e-15 0)
(3 -8.53335e-16 0)
(3 -1.11287e-15 0)
(3 -1.35889e-15 0)
(3 -8.1892e-16 0)
(3 -1.46749e-15 0)
(3 -1.82221e-15 0)
(3 -1.60283e-15 0)
(3 -1.66118e-15 0)
(3 -1.60575e-15 0)
(3 6.07362e-11 0)
(3.00164 0.00145874 0)
(2.78042 0.419515 0)
(1.47632 1.15903 0)
(1.25879 1.29634 0)
(1.47688 1.25285 0)
(3 2.66029e-16 0)
(3 -3.87267e-16 0)
(3 -5.93529e-16 0)
(3 -7.212e-16 0)
(3 -3.97569e-16 0)
(3 -3.89711e-16 0)
(3 -7.60555e-16 0)
(3 1.70145e-16 0)
(3 9.35175e-16 0)
(3 1.77207e-16 0)
(3 2.88709e-16 0)
(3 2.99939e-16 0)
(3 2.42013e-16 0)
(3 2.04041e-16 0)
(3 -1.72598e-17 0)
(3 -5.79568e-16 0)
(3 -9.42444e-16 0)
(3 -9.28032e-16 0)
(3 -1.39453e-15 0)
(3 -1.24263e-15 0)
(3 -1.25151e-15 0)
(3 -2.22994e-16 0)
(3 -1.27685e-16 0)
(3 -7.15387e-17 0)
(3 7.05896e-16 0)
(3 8.44967e-16 0)
(3 1.34883e-15 0)
(3 1.56203e-15 0)
(3 1.73735e-15 0)
(3 2.01036e-15 0)
(3 1.603e-15 0)
(3 9.58259e-16 0)
(3 -4.46493e-16 0)
(3 -1.56087e-15 0)
(3 -2.12152e-15 0)
(3 -1.55754e-15 0)
(3 -1.2483e-15 0)
(3 -1.44046e-15 0)
(3 -2.18707e-15 0)
(3 -2.48031e-15 0)
(3 -9.1588e-16 0)
(3 1.92002e-16 0)
(3 1.9608e-15 0)
(3 1.23622e-06 0)
(3.00995 0.0239363 0)
(2.47058 0.674859 0)
(1.56275 1.21635 0)
(1.54448 1.28059 0)
(3 -1.51377e-16 0)
(3 -7.54239e-16 0)
(3 -1.38652e-15 0)
(3 -8.35554e-16 0)
(3 -4.18337e-16 0)
(3 -2.08813e-16 0)
(3 3.64898e-16 0)
(3 6.88046e-16 0)
(3 1.03717e-16 0)
(3 -1.15195e-16 0)
(3 -1.56446e-16 0)
(3 9.95633e-17 0)
(3 1.58564e-17 0)
(3 -4.64598e-16 0)
(3 -1.26813e-15 0)
(3 -1.48676e-15 0)
(3 -1.14576e-15 0)
(3 -1.35267e-15 0)
(3 -9.13952e-16 0)
(3 -1.27187e-15 0)
(3 -9.38958e-16 0)
(3 -5.47897e-16 0)
(3 -4.69698e-16 0)
(3 -9.42691e-16 0)
(3 -6.09327e-16 0)
(3 -4.26074e-16 0)
(3 1.87516e-16 0)
(3 -1.00282e-16 0)
(3 8.82259e-17 0)
(3 7.11873e-16 0)
(3 5.81798e-16 0)
(3 3.51551e-16 0)
(3 4.83049e-16 0)
(3 1.4208e-16 0)
(3 -8.2935e-16 0)
(3 -2.04539e-15 0)
(3 -2.25906e-15 0)
(3 -1.2357e-15 0)
(3 -2.48344e-16 0)
(3 -3.25678e-16 0)
(3 1.02549e-16 0)
(3 9.73575e-16 0)
(3 6.3211e-16 0)
(3 3.9351e-11 0)
(3.00007 0.000135465 0)
(2.99461 0.0733964 0)
(2.33853 0.786576 0)
(1.74635 1.21595 0)
(3 1.50961e-16 0)
(3 3.11044e-16 0)
(3 2.74635e-16 0)
(3 5.6925e-18 0)
(3 1.52372e-16 0)
(3 9.63421e-16 0)
(3 1.99508e-15 0)
(3 1.77025e-15 0)
(3 7.27091e-16 0)
(3 4.98821e-16 0)
(3 -5.071e-16 0)
(3 -1.65244e-15 0)
(3 -1.89815e-15 0)
(3 -1.99396e-15 0)
(3 -1.74738e-15 0)
(3 -1.82103e-15 0)
(3 -1.95678e-15 0)
(3 -1.89879e-15 0)
(3 -4.893e-16 0)
(3 -4.23552e-16 0)
(3 -3.99878e-16 0)
(3 -5.00828e-16 0)
(3 -4.69842e-16 0)
(3 -6.00176e-16 0)
(3 -4.0696e-16 0)
(3 -2.31666e-16 0)
(3 -4.03715e-16 0)
(3 -3.17759e-16 0)
(3 -5.02829e-17 0)
(3 -3.14254e-16 0)
(3 -7.83875e-16 0)
(3 -2.54928e-16 0)
(3 5.03878e-16 0)
(3 1.0837e-15 0)
(3 6.32246e-16 0)
(3 -1.42575e-15 0)
(3 -1.79571e-15 0)
(3 -1.36796e-15 0)
(3 -1.45844e-16 0)
(3 -2.80416e-17 0)
(3 3.89775e-16 0)
(3 7.43043e-16 0)
(3 5.67415e-16 0)
(3 9.59808e-16 0)
(3 3.7933e-08 0)
(3.00021 0.000877778 0)
(2.96295 0.12022 0)
(2.35318 0.788362 0)
(3 2.92279e-16 0)
(3 7.16763e-16 0)
(3 7.48435e-16 0)
(3 4.02418e-16 0)
(3 4.33674e-16 0)
(3 5.71444e-16 0)
(3 3.62161e-16 0)
(3 -1.86532e-16 0)
(3 -4.29241e-17 0)
(3 -6.88703e-16 0)
(3 -1.21447e-15 0)
(3 -2.13818e-15 0)
(3 -2.12634e-15 0)
(3 -1.14038e-15 0)
(3 -7.68048e-16 0)
(3 1.5777e-16 0)
(3 4.60005e-16 0)
(3 4.31452e-16 0)
(3 -4.08098e-17 0)
(3 7.7428e-17 0)
(3 -4.60598e-16 0)
(3 -5.58009e-16 0)
(3 1.13387e-17 0)
(3 5.73563e-16 0)
(3 2.94499e-16 0)
(3 4.59893e-16 0)
(3 1.03313e-15 0)
(3 1.73463e-15 0)
(3 1.4838e-15 0)
(3 2.7184e-16 0)
(3 -8.34787e-16 0)
(3 -1.84063e-15 0)
(3 -1.52484e-15 0)
(3 -7.94826e-16 0)
(3 -4.75234e-17 0)
(3 -4.07116e-16 0)
(3 -1.35062e-15 0)
(3 -1.82316e-15 0)
(3 -1.81472e-15 0)
(3 -8.82719e-16 0)
(3 4.42606e-16 0)
(3 5.0147e-16 0)
(3 2.59755e-16 0)
(3 4.2558e-16 0)
(3 1.08135e-12 0)
(3 6.15444e-07 0)
(3.00018 0.0020393 0)
(2.93426 0.139275 0)
(3 7.83126e-17 0)
(3 -2.04097e-16 0)
(3 -4.06413e-16 0)
(3 3.57699e-16 0)
(3 3.30387e-16 0)
(3 -1.65993e-16 0)
(3 -7.47429e-16 0)
(3 -8.39436e-16 0)
(3 -9.59347e-16 0)
(3 -1.20906e-15 0)
(3 -1.58341e-15 0)
(3 -9.71448e-16 0)
(3 -1.34491e-15 0)
(3 -1.79621e-15 0)
(3 -1.6833e-15 0)
(3 -3.64972e-16 0)
(3 1.72268e-15 0)
(3 1.86264e-15 0)
(3 4.95915e-16 0)
(3 -1.52542e-16 0)
(3 -5.08513e-16 0)
(3 -2.67547e-16 0)
(3 6.64118e-16 0)
(3 9.794e-16 0)
(3 4.86069e-16 0)
(3 7.31396e-16 0)
(3 1.36104e-15 0)
(3 3.19154e-15 0)
(3 3.06251e-15 0)
(3 1.53533e-15 0)
(3 6.52065e-16 0)
(3 -3.67594e-16 0)
(3 -1.32043e-15 0)
(3 -2.32248e-15 0)
(3 -1.22894e-15 0)
(3 -2.271e-16 0)
(3 -5.4763e-16 0)
(3 -6.11553e-16 0)
(3 -6.77362e-16 0)
(3 -1.26931e-16 0)
(3 -2.19473e-16 0)
(3 -5.20949e-16 0)
(3 -2.94125e-16 0)
(3 4.58102e-16 0)
(3 1.28405e-15 0)
(3 2.37754e-11 0)
(3 2.34454e-06 0)
(2.9997 0.00245162 0)
(3 -9.44398e-17 0)
(3 1.63409e-16 0)
(3 1.33566e-16 0)
(3 4.69151e-17 0)
(3 -5.79656e-17 0)
(3 -4.16523e-16 0)
(3 -7.93435e-16 0)
(3 -7.05543e-16 0)
(3 -7.1953e-16 0)
(3 -3.38645e-16 0)
(3 4.4788e-16 0)
(3 1.47289e-15 0)
(3 1.45561e-15 0)
(3 -3.70001e-16 0)
(3 -1.08401e-15 0)
(3 -2.13256e-16 0)
(3 1.15185e-15 0)
(3 2.00329e-15 0)
(3 9.37047e-16 0)
(3 -3.02903e-16 0)
(3 -1.63221e-16 0)
(3 1.37191e-15 0)
(3 2.44112e-15 0)
(3 2.34642e-15 0)
(3 2.68734e-15 0)
(3 2.42495e-15 0)
(3 2.52762e-15 0)
(3 1.79301e-15 0)
(3 1.02182e-15 0)
(3 1.9684e-16 0)
(3 8.54405e-16 0)
(3 1.59929e-15 0)
(3 -2.44467e-17 0)
(3 -6.82616e-16 0)
(3 -6.03703e-16 0)
(3 -3.19162e-16 0)
(3 4.87593e-18 0)
(3 2.77177e-16 0)
(3 5.95848e-16 0)
(3 5.67007e-16 0)
(3 -8.32988e-16 0)
(3 -1.41861e-15 0)
(3 -1.17176e-15 0)
(3 -1.0173e-15 0)
(3 -1.20177e-15 0)
(3 -4.66819e-17 0)
(3 1.53143e-10 0)
(3 3.14512e-06 0)
(3 1.90842e-17 0)
(3 3.57279e-16 0)
(3 4.50591e-16 0)
(3 8.83392e-17 0)
(3 -2.13075e-16 0)
(3 -8.67088e-16 0)
(3 -9.75714e-16 0)
(3 -1.29648e-15 0)
(3 -1.20943e-15 0)
(3 -6.15043e-16 0)
(3 8.4946e-16 0)
(3 1.97677e-15 0)
(3 1.78945e-15 0)
(3 9.44532e-16 0)
(3 -1.2555e-16 0)
(3 2.82155e-16 0)
(3 6.35785e-16 0)
(3 8.55678e-16 0)
(3 8.18675e-16 0)
(3 4.27957e-16 0)
(3 7.04621e-16 0)
(3 2.3387e-15 0)
(3 3.01058e-15 0)
(3 3.00668e-15 0)
(3 2.95205e-15 0)
(3 1.9112e-15 0)
(3 1.13933e-15 0)
(3 -5.9204e-16 0)
(3 -1.20907e-15 0)
(3 -7.059e-16 0)
(3 6.88345e-16 0)
(3 7.54562e-16 0)
(3 7.14971e-16 0)
(3 9.02485e-16 0)
(3 1.55249e-16 0)
(3 -4.32335e-16 0)
(3 -1.27001e-16 0)
(3 7.19561e-16 0)
(3 1.15633e-15 0)
(3 4.41185e-17 0)
(3 -4.50048e-16 0)
(3 -4.04776e-16 0)
(3 -1.42198e-15 0)
(3 -2.70936e-15 0)
(3 -2.68725e-15 0)
(3 -1.59166e-15 0)
(3 2.92099e-15 0)
(3 2.35101e-10 0)
(3 -1.86449e-17 0)
(3 -1.09154e-17 0)
(3 1.72545e-16 0)
(3 3.56628e-16 0)
(3 8.41271e-17 0)
(3 1.35331e-17 0)
(3 -5.50831e-16 0)
(3 -1.4097e-15 0)
(3 -1.69688e-15 0)
(3 -7.47424e-16 0)
(3 -7.89506e-17 0)
(3 -1.25596e-16 0)
(3 3.4448e-16 0)
(3 4.8735e-16 0)
(3 5.32526e-16 0)
(3 -1.00618e-15 0)
(3 -1.38277e-15 0)
(3 -1.41798e-15 0)
(3 8.85049e-18 0)
(3 3.43671e-16 0)
(3 1.46052e-15 0)
(3 8.77781e-16 0)
(3 5.12572e-16 0)
(3 4.41273e-16 0)
(3 5.7428e-16 0)
(3 1.06904e-15 0)
(3 3.81524e-16 0)
(3 -1.09098e-16 0)
(3 -8.17544e-16 0)
(3 5.28971e-16 0)
(3 1.55633e-15 0)
(3 1.04732e-15 0)
(3 1.34641e-15 0)
(3 7.80519e-16 0)
(3 -6.03566e-16 0)
(3 -1.06035e-15 0)
(3 -1.33587e-15 0)
(3 -5.11832e-16 0)
(3 4.29353e-16 0)
(3 6.39744e-16 0)
(3 1.1606e-15 0)
(3 1.26913e-15 0)
(3 6.57416e-16 0)
(3 5.40052e-16 0)
(3 4.71333e-16 0)
(3 -5.35063e-16 0)
(3 -9.15424e-16 0)
(3 4.93477e-15 0)
(3 -4.43001e-16 0)
(3 -4.97453e-16 0)
(3 -4.26795e-16 0)
(3 -2.18095e-16 0)
(3 2.68091e-17 0)
(3 5.24333e-16 0)
(3 -2.94549e-16 0)
(3 -5.20744e-16 0)
(3 3.8975e-17 0)
(3 -9.45623e-17 0)
(3 -8.61805e-16 0)
(3 -8.94037e-16 0)
(3 -2.20388e-16 0)
(3 7.12715e-17 0)
(3 4.60118e-16 0)
(3 -1.32005e-17 0)
(3 -8.45418e-16 0)
(3 -1.09445e-15 0)
(3 -5.06775e-16 0)
(3 4.90416e-16 0)
(3 2.94985e-16 0)
(3 -2.6944e-16 0)
(3 -1.53663e-15 0)
(3 -1.85681e-15 0)
(3 -1.61031e-15 0)
(3 -8.69106e-16 0)
(3 -4.65342e-16 0)
(3 -3.25765e-16 0)
(3 -1.34752e-16 0)
(3 5.7133e-16 0)
(3 1.13907e-15 0)
(3 1.77863e-15 0)
(3 1.19194e-15 0)
(3 8.76578e-16 0)
(3 1.50786e-16 0)
(3 -1.36385e-15 0)
(3 -2.27987e-15 0)
(3 -1.61992e-15 0)
(3 -6.91515e-16 0)
(3 2.78981e-16 0)
(3 1.36662e-15 0)
(3 1.85749e-15 0)
(3 1.50759e-15 0)
(3 1.43324e-15 0)
(3 7.42469e-16 0)
(3 6.5506e-16 0)
(3 -2.11776e-16 0)
(3 -1.13728e-15 0)
(3 9.70748e-17 0)
(3 1.69873e-16 0)
(3 -5.02184e-16 0)
(3 -2.75711e-16 0)
(3 8.70136e-17 0)
(3 1.05653e-17 0)
(3 7.2804e-17 0)
(3 6.4665e-17 0)
(3 -8.89255e-17 0)
(3 -1.22659e-15 0)
(3 -1.6376e-15 0)
(3 -1.71511e-15 0)
(3 -1.4297e-15 0)
(3 -8.76461e-16 0)
(3 -4.18075e-16 0)
(3 -2.06036e-16 0)
(3 -6.76637e-17 0)
(3 5.6967e-17 0)
(3 2.21961e-16 0)
(3 6.75396e-16 0)
(3 -8.96281e-17 0)
(3 -1.78931e-15 0)
(3 -2.50771e-15 0)
(3 -3.0608e-15 0)
(3 -2.91457e-15 0)
(3 -2.27945e-15 0)
(3 -1.31338e-15 0)
(3 2.57225e-16 0)
(3 8.55175e-16 0)
(3 8.66931e-16 0)
(3 6.1627e-16 0)
(3 -3.87313e-17 0)
(3 4.803e-16 0)
(3 7.73174e-16 0)
(3 5.35326e-16 0)
(3 -1.15729e-15 0)
(3 -5.98835e-16 0)
(3 1.26538e-16 0)
(3 4.74455e-17 0)
(3 -3.85158e-16 0)
(3 -7.68009e-16 0)
(3 -5.02393e-16 0)
(3 -9.40187e-16 0)
(3 -8.23321e-16 0)
(3 -4.61044e-16 0)
(3 -5.83566e-16 0)
(3 -8.69808e-16 0)
(3 -1.14399e-15 0)
(3 -3.91263e-17 0)
(3 -2.78943e-16 0)
(3 -1.85279e-17 0)
(3 3.39255e-16 0)
(3 2.5115e-18 0)
(3 9.19638e-17 0)
(3 2.81541e-16 0)
(3 5.68659e-16 0)
(3 5.70987e-16 0)
(3 -8.85759e-17 0)
(3 2.42337e-18 0)
(3 8.83242e-17 0)
(3 2.66544e-16 0)
(3 8.018e-16 0)
(3 1.13325e-15 0)
(3 9.37217e-16 0)
(3 1.13042e-15 0)
(3 1.32923e-15 0)
(3 2.80424e-17 0)
(3 -1.32975e-15 0)
(3 -1.96926e-15 0)
(3 -1.88817e-15 0)
(3 -2.11702e-15 0)
(3 -2.79951e-15 0)
(3 -7.68153e-17 0)
(3 2.39024e-16 0)
(3 5.41024e-16 0)
(3 6.3177e-16 0)
(3 6.00073e-16 0)
(3 2.99549e-16 0)
(3 -5.6037e-16 0)
(3 -1.29231e-15 0)
(3 -1.83154e-16 0)
(3 -7.05615e-17 0)
(3 -1.2415e-16 0)
(3 -4.24391e-16 0)
(3 -2.56585e-16 0)
(3 -3.12169e-17 0)
(3 -2.75766e-16 0)
(3 -2.18465e-16 0)
(3 -4.76047e-16 0)
(3 -9.43107e-16 0)
(3 -1.37503e-15 0)
(3 -1.12594e-15 0)
(3 -3.23536e-16 0)
(3 -5.10975e-16 0)
(3 -1.12542e-15 0)
(3 -1.94619e-15 0)
(3 -2.98199e-16 0)
(3 -3.68214e-16 0)
(3 -2.75021e-17 0)
(3 1.53553e-16 0)
(3 1.71254e-17 0)
(3 1.27076e-16 0)
(3 9.41516e-16 0)
(3 1.68179e-15 0)
(3 6.64641e-16 0)
(3 5.85779e-16 0)
(3 7.3034e-16 0)
(3 5.51054e-16 0)
(3 -1.40394e-16 0)
(3 1.30497e-15 0)
(3 3.23135e-15 0)
(3 3.28702e-15 0)
(3 2.07304e-15 0)
(3 5.51019e-16 0)
(3 -6.02563e-16 0)
(3 -1.44158e-15 0)
(3 -2.41821e-15 0)
(3 -2.61355e-15 0)
(3 -1.99058e-15 0)
(3 -1.83302e-15 0)
(3 -3.18337e-16 0)
(3 3.98758e-16 0)
(3 3.95464e-16 0)
(3 -6.80604e-16 0)
(3 1.06926e-16 0)
(3 4.9125e-16 0)
(3 5.7999e-17 0)
(3 3.90485e-16 0)
(3 3.42383e-16 0)
(3 6.16743e-16 0)
(3 1.60107e-16 0)
(3 4.97677e-16 0)
(3 -6.50761e-16 0)
(3 -1.55652e-15 0)
(3 -1.50934e-15 0)
(3 -9.52154e-16 0)
(3 -1.00567e-15 0)
(3 -1.57238e-15 0)
(3 -1.66928e-15 0)
(3 -1.68797e-15 0)
(3 -1.07949e-15 0)
(3 -1.16255e-15 0)
(3 -1.35433e-15 0)
(3 -1.2217e-15 0)
(3 -2.28716e-17 0)
(3 -1.05612e-16 0)
(3 -4.87481e-17 0)
(3 -4.79114e-16 0)
(3 -3.43e-16 0)
(3 -1.88777e-16 0)
(3 4.09558e-16 0)
(3 6.94789e-16 0)
(3 3.51354e-16 0)
(3 8.03517e-16 0)
(3 6.53635e-16 0)
(3 5.70222e-16 0)
(3 4.61014e-16 0)
(3 1.00018e-15 0)
(3 1.33563e-15 0)
(3 9.08004e-16 0)
(3 -2.70536e-16 0)
(3 -1.36586e-15 0)
(3 -1.76775e-15 0)
(3 -2.16259e-15 0)