/*--------------------------------*- C++ -*----------------------------------*\
| =========                 |                                                 |
| \\      /  F ield         | OpenFOAM: The Open Source CFD Toolbox           |
|  \\    /   O peration     | Version:  v2006                                 |
|   \\  /    A nd           | Website:  www.openfoam.com                      |
|    \\/     M anipulation  |                                                 |
\*---------------------------------------------------------------------------*/
FoamFile
{
    version     2.0;
    format      ascii;
    class       volVectorField;
    location    "0.1";
    object      U;
}
// * * * * * * * * * * * * * * * * * * * * * * * * * * * * * * * * * * * * * //

dimensions      [0 1 -1 0 0 0 0];


internalField   nonuniform List<vector> 
16128
(
(3 2.60587e-17 0)
(3 1.92681e-16 0)
(3 -8.87649e-17 0)
(3 -6.89159e-16 0)
(3 -8.90822e-16 0)
(3 -4.38479e-16 0)
(3 4.55502e-16 0)
(3 5.20295e-16 0)
(3 8.57371e-17 0)
(3 -2.2667e-16 0)
(3 -7.07042e-16 0)
(3 -6.75511e-16 0)
(3 -7.03182e-17 0)
(3 1.57034e-16 0)
(3 4.35856e-16 0)
(3 3.71919e-16 0)
(3 1.4872e-16 0)
(3 -3.482e-16 0)
(3 -3.86916e-16 0)
(3 -1.82343e-17 0)
(3 8.04308e-16 0)
(3 4.34641e-16 0)
(3 -4.78877e-16 0)
(3 -6.87331e-16 0)
(3 -1.13079e-15 0)
(3 -1.05981e-15 0)
(3 -1.19974e-15 0)
(3 -1.33864e-15 0)
(3 -2.26905e-15 0)
(3 -1.86831e-15 0)
(3 -9.39681e-16 0)
(3 -2.96789e-16 0)
(3 -1.94304e-16 0)
(3 -2.83e-16 0)
(3 -7.5622e-16 0)
(3 -8.75972e-16 0)
(3 1.7361e-17 0)
(3 5.57037e-16 0)
(3 3.62684e-16 0)
(3 -7.96077e-17 0)
(1.16527 -1.1163e-05 0)
(0.119439 -2.51249e-08 0)
(0.0261368 1.29448e-05 0)
(0.0445223 3.81803e-05 0)
(0.0413348 7.28759e-05 0)
(0.0258897 0.000115848 0)
(0.0125971 0.00014446 0)
(-8.72046e-05 0.000154557 0)
(3 -8.90359e-17 0)
(3 7.55673e-16 0)
(3 5.13125e-16 0)
(3 -2.13862e-16 0)
(3 -1.08545e-15 0)
(3 -4.15174e-16 0)
(3 1.40587e-15 0)
(3 1.62206e-15 0)
(3 8.05955e-16 0)
(3 -3.57193e-16 0)
(3 -1.08639e-15 0)
(3 -1.13472e-15 0)
(3 3.26368e-16 0)
(3 1.50234e-15 0)
(3 1.38705e-15 0)
(3 1.24897e-15 0)
(3 6.61349e-16 0)
(3 -2.70038e-16 0)
(3 3.74245e-17 0)
(3 1.67566e-15 0)
(3 2.31839e-15 0)
(3 2.07662e-15 0)
(3 1.70523e-15 0)
(3 6.55067e-16 0)
(3 -3.32456e-16 0)
(3 -7.36642e-16 0)
(3 -1.49353e-15 0)
(3 -2.51221e-15 0)
(3 -2.79092e-15 0)
(3 -1.77446e-15 0)
(3 1.48558e-16 0)
(3 2.54972e-16 0)
(3 -3.04329e-16 0)
(3 -6.06542e-16 0)
(3 -7.98701e-16 0)
(3 1.08742e-16 0)
(3 2.00359e-16 0)
(3 4.37229e-16 0)
(3 7.59638e-16 0)
(3 -7.53404e-16 0)
(1.16519 -9.95353e-06 0)
(0.11965 0.000172001 0)
(0.0264606 0.00088001 0)
(0.0448391 0.0018855 0)
(0.0419536 0.00305622 0)
(0.0263802 0.00417673 0)
(0.0128281 0.00489492 0)
(-4.75486e-05 0.00516562 0)
(3 -3.551e-16 0)
(3 5.21954e-16 0)
(3 8.96856e-16 0)
(3 1.23166e-15 0)
(3 1.61266e-15 0)
(3 1.53266e-15 0)
(3 2.32717e-15 0)
(3 2.04377e-15 0)
(3 1.36214e-15 0)
(3 -3.40685e-16 0)
(3 -5.61107e-16 0)
(3 -1.00486e-16 0)
(3 5.46238e-16 0)
(3 1.7287e-15 0)
(3 1.31929e-15 0)
(3 1.45303e-15 0)
(3 8.60655e-16 0)
(3 6.6541e-16 0)
(3 5.86879e-16 0)
(3 7.0609e-16 0)
(3 6.25853e-16 0)
(3 9.4592e-16 0)
(3 2.24564e-15 0)
(3 2.16763e-15 0)
(3 1.24291e-15 0)
(3 7.75498e-17 0)
(3 -5.25443e-16 0)
(3 -1.38909e-15 0)
(3 -1.9062e-15 0)
(3 -1.57496e-15 0)
(3 -1.12566e-15 0)
(3 -1.48594e-15 0)
(3 -1.77741e-15 0)
(3 -1.58075e-15 0)
(3 -8.18363e-16 0)
(3 -3.96216e-16 0)
(3 -9.83306e-16 0)
(3 -1.44506e-15 0)
(3 -1.87375e-16 0)
(3 -5.18819e-16 0)
(1.1658 0.000945725 0)
(0.122443 0.00324262 0)
(0.029429 0.00907864 0)
(0.0475686 0.0149795 0)
(0.0460582 0.020958 0)
(0.0292337 0.0255635 0)
(0.0142125 0.0283478 0)
(0.000247867 0.0295625 0)
(3 -2.7047e-17 0)
(3 -2.7075e-16 0)
(3 -2.1314e-16 0)
(3 -1.18488e-16 0)
(3 6.2916e-16 0)
(3 1.3159e-15 0)
(3 1.61793e-15 0)
(3 3.87578e-16 0)
(3 -4.24668e-18 0)
(3 -9.67915e-16 0)
(3 -9.52169e-16 0)
(3 1.37727e-15 0)
(3 1.6543e-15 0)
(3 1.4479e-15 0)
(3 1.89582e-15 0)
(3 1.76014e-15 0)
(3 1.98977e-15 0)
(3 2.26767e-15 0)
(3 2.61193e-15 0)
(3 2.19916e-15 0)
(3 1.34417e-15 0)
(3 3.41133e-16 0)
(3 1.49612e-15 0)
(3 2.60659e-15 0)
(3 1.58808e-15 0)
(3 7.68665e-16 0)
(3 5.80356e-16 0)
(3 -5.92346e-16 0)
(3 -2.07407e-15 0)
(3 -3.31451e-15 0)
(3 -3.32888e-15 0)
(3 -2.80273e-15 0)
(3 -1.7253e-15 0)
(3 -1.24946e-15 0)
(3 -1.23046e-15 0)
(3 -1.56781e-15 0)
(3 -1.40809e-15 0)
(3 -1.93207e-15 0)
(3 -1.08356e-15 0)
(3 -8.69512e-16 0)
(1.17827 0.0114486 0)
(0.13359 0.0189959 0)
(0.03876 0.0337641 0)
(0.0553145 0.0467284 0)
(0.056219 0.0589852 0)
(0.0354324 0.0668185 0)
(0.0175802 0.0710442 0)
(0.00116164 0.0732839 0)
(3 2.7352e-16 0)
(3 -2.18814e-16 0)
(3 -3.06637e-16 0)
(3 -5.15456e-16 0)
(3 -1.06799e-15 0)
(3 -5.42245e-16 0)
(3 -5.69648e-16 0)
(3 -1.2394e-15 0)
(3 -1.39191e-15 0)
(3 -1.8806e-15 0)
(3 -1.09664e-15 0)
(3 2.41055e-16 0)
(3 8.21898e-16 0)
(3 2.74312e-15 0)
(3 3.69557e-15 0)
(3 3.44584e-15 0)
(3 2.68838e-15 0)
(3 2.34559e-15 0)
(3 2.59671e-15 0)
(3 2.57758e-15 0)
(3 1.59883e-15 0)
(3 9.09416e-16 0)
(3 1.96124e-16 0)
(3 -1.23641e-16 0)
(3 -2.49662e-17 0)
(3 -1.36625e-16 0)
(3 -1.16165e-15 0)
(3 -1.14064e-15 0)
(3 -1.60897e-15 0)
(3 -1.4698e-15 0)
(3 -1.23034e-15 0)
(3 -5.00252e-16 0)
(3 5.88799e-16 0)
(3 4.30988e-16 0)
(3 -6.42631e-16 0)
(3 -8.14434e-16 0)
(3 3.08074e-16 0)
(3 5.9895e-16 0)
(3 -3.4074e-16 0)
(3 -1.25265e-15 0)
(1.22987 0.0444821 0)
(0.156135 0.0553385 0)
(0.0543355 0.0712217 0)
(0.0684081 0.0882853 0)
(0.0700906 0.104296 0)
(0.0435687 0.112575 0)
(0.0228975 0.116138 0)
(0.00274272 0.118729 0)
(3 6.30693e-18 0)
(3 -8.65228e-17 0)
(3 1.07151e-16 0)
(3 3.65473e-16 0)
(3 -1.6253e-16 0)
(3 -1.63142e-15 0)
(3 -3.57916e-15 0)
(3 -3.23389e-15 0)
(3 -2.59974e-15 0)
(3 -2.33977e-15 0)
(3 -1.20096e-15 0)
(3 -5.37238e-16 0)
(3 4.96022e-16 0)
(3 1.7113e-15 0)
(3 1.94369e-15 0)
(3 1.75202e-15 0)
(3 1.9727e-15 0)
(3 2.19967e-15 0)
(3 1.5309e-15 0)
(3 1.46946e-15 0)
(3 -5.91439e-16 0)
(3 -1.17251e-15 0)
(3 -1.66398e-15 0)
(3 -1.97698e-15 0)
(3 -1.50415e-15 0)
(3 -6.02063e-16 0)
(3 -1.43383e-17 0)
(3 1.66704e-15 0)
(3 2.15411e-15 0)
(3 2.55569e-15 0)
(3 2.79579e-15 0)
(3 2.76514e-15 0)
(3 2.22873e-15 0)
(3 2.27454e-15 0)
(3 2.40655e-15 0)
(3 2.1803e-15 0)
(3 1.68997e-15 0)
(3 9.93778e-16 0)
(3 -3.95421e-16 0)
(3 -1.81666e-15 0)
(1.349 0.0953754 0)
(0.193661 0.109358 0)
(0.0738668 0.112745 0)
(0.0863479 0.129996 0)
(0.0846561 0.14713 0)
(0.0513354 0.153595 0)
(0.028936 0.155134 0)
(0.0050037 0.157296 0)
(3 -3.37351e-16 0)
(3 -2.89756e-16 0)
(3 -2.58187e-16 0)
(3 -9.80938e-17 0)
(3 -1.29625e-15 0)
(3 -2.82842e-15 0)
(3 -4.01212e-15 0)
(3 -3.26237e-15 0)
(3 -2.04287e-15 0)
(3 -8.07873e-16 0)
(3 -4.40228e-16 0)
(3 -6.65071e-16 0)
(3 -5.80908e-16 0)
(3 -7.08663e-16 0)
(3 8.57886e-17 0)
(3 2.59613e-17 0)
(3 3.57232e-16 0)
(3 1.26122e-15 0)
(3 1.44223e-15 0)
(3 -3.95828e-16 0)
(3 -2.14393e-16 0)
(3 -1.71984e-16 0)
(3 3.47687e-16 0)
(3 6.56518e-16 0)
(3 1.65672e-16 0)
(3 9.93708e-16 0)
(3 1.94378e-15 0)
(3 2.97589e-15 0)
(3 3.46471e-15 0)
(3 3.09807e-15 0)
(3 2.44173e-15 0)
(3 2.81638e-15 0)
(3 2.77432e-15 0)
(3 3.20761e-15 0)
(3 3.656e-15 0)
(3 2.51442e-15 0)
(3 1.0899e-15 0)
(3 5.35649e-17 0)
(3 -8.27243e-16 0)
(3 -2.23445e-15 0)
(1.55552 0.147693 0)
(0.248181 0.175847 0)
(0.0996621 0.156268 0)
(0.109586 0.171474 0)
(0.0980051 0.184626 0)
(0.0572216 0.188916 0)
(0.0343255 0.187849 0)
(0.00782719 0.189424 0)
(3 1.46661e-16 0)
(3 -9.39183e-18 0)
(3 -5.87925e-16 0)
(3 -1.33726e-15 0)
(3 -2.03908e-15 0)
(3 -2.27757e-15 0)
(3 -1.7225e-15 0)
(3 -1.09554e-15 0)
(3 -4.93657e-17 0)
(3 1.77734e-15 0)
(3 1.57714e-15 0)
(3 -3.84895e-17 0)
(3 -5.18331e-16 0)
(3 -4.70938e-16 0)
(3 -2.71348e-16 0)
(3 -2.62302e-15 0)
(3 -3.32098e-15 0)
(3 -3.0493e-15 0)
(3 -2.93356e-15 0)
(3 -3.55248e-15 0)
(3 -2.7238e-15 0)
(3 -1.50847e-15 0)
(3 -5.49856e-16 0)
(3 5.51761e-16 0)
(3 3.30087e-16 0)
(3 -1.67943e-16 0)
(3 8.04821e-16 0)
(3 1.20691e-15 0)
(3 1.24731e-15 0)
(3 1.3563e-16 0)
(3 5.43823e-17 0)
(3 8.54468e-16 0)
(3 1.83631e-15 0)
(3 2.19454e-15 0)
(3 1.11833e-15 0)
(3 5.3789e-16 0)
(3 -2.49893e-16 0)
(3 -1.45262e-15 0)
(3 -1.81805e-15 0)
(3 -1.58587e-15 0)
(1.86683 0.181795 0)
(0.319463 0.24765 0)
(0.136488 0.210812 0)
(0.135312 0.216802 0)
(0.109966 0.218941 0)
(0.0628262 0.221279 0)
(0.0391727 0.216953 0)
(0.0110552 0.218882 0)
(3 1.15826e-16 0)
(3 1.32923e-17 0)
(3 -4.03624e-16 0)
(3 -7.69329e-16 0)
(3 -4.19413e-16 0)
(3 4.61478e-16 0)
(3 1.89163e-15 0)
(3 1.56671e-15 0)
(3 1.3373e-15 0)
(3 1.89282e-15 0)
(3 1.92886e-15 0)
(3 1.64452e-15 0)
(3 8.93034e-16 0)
(3 -6.84904e-16 0)
(3 -2.50085e-15 0)
(3 -2.82907e-15 0)
(3 -2.81615e-15 0)
(3 -3.37174e-15 0)
(3 -4.80532e-15 0)
(3 -5.25332e-15 0)
(3 -4.32183e-15 0)
(3 -2.51742e-15 0)
(3 -1.88177e-15 0)
(3 -3.58059e-16 0)
(3 -2.35982e-16 0)
(3 -6.8081e-16 0)
(3 -3.574e-16 0)
(3 -1.08289e-16 0)
(3 -8.67683e-18 0)
(3 1.17125e-16 0)
(3 2.13153e-16 0)
(3 -2.07961e-16 0)
(3 -6.55059e-16 0)
(3 -1.31002e-15 0)
(3 -1.75965e-15 0)
(3 -1.91654e-15 0)
(3 -1.87452e-15 0)
(3 -1.49784e-15 0)
(3 -9.08919e-16 0)
(3 -4.03738e-16 0)
(2.2671 0.173881 0)
(0.43421 0.312494 0)
(0.185085 0.289533 0)
(0.171014 0.261963 0)
(0.12324 0.256231 0)
(0.0692299 0.255643 0)
(0.0447313 0.247106 0)
(0.0146309 0.250646 0)
(3 -3.5475e-16 0)
(3 -5.54504e-16 0)
(3 -1.31875e-15 0)
(3 -1.46528e-15 0)
(3 -9.8333e-16 0)
(3 -2.42778e-16 0)
(3 1.23074e-15 0)
(3 1.41688e-15 0)
(3 1.31964e-15 0)
(3 9.26473e-16 0)
(3 4.72049e-16 0)
(3 1.5957e-16 0)
(3 -1.2202e-15 0)
(3 -2.73606e-15 0)
(3 -2.82249e-15 0)
(3 -2.1113e-15 0)
(3 -1.17168e-15 0)
(3 -7.38928e-16 0)
(3 -1.15311e-15 0)
(3 -1.75843e-15 0)
(3 -1.23195e-15 0)
(3 -1.68273e-15 0)
(3 -2.23481e-15 0)
(3 -2.41439e-15 0)
(3 -8.60119e-16 0)
(3 -3.58909e-16 0)
(3 -5.38847e-16 0)
(3 -6.25263e-16 0)
(3 -3.05373e-16 0)
(3 1.34756e-15 0)
(3 1.17356e-15 0)
(3 1.96724e-16 0)
(3 -5.43692e-16 0)
(3 -1.66158e-15 0)
(3 -1.02218e-15 0)
(3 -4.33173e-16 0)
(3 -6.0021e-16 0)
(3 1.34346e-15 0)
(3 2.03954e-15 0)
(3 2.12211e-15 0)
(2.67595 0.1153 0)
(0.615841 0.372397 0)
(0.252538 0.376622 0)
(0.209911 0.32473 0)
(0.138731 0.302719 0)
(0.078807 0.296446 0)
(0.053929 0.283355 0)
(0.0199617 0.29051 0)
(3 -1.53411e-16 0)
(3 -6.1051e-16 0)
(3 -2.11012e-16 0)
(3 -1.34893e-15 0)
(3 -1.47615e-15 0)
(3 -9.24561e-16 0)
(3 -6.60152e-16 0)
(3 -4.49515e-16 0)
(3 -6.66387e-17 0)
(3 2.40218e-17 0)
(3 -3.77693e-16 0)
(3 -1.54508e-15 0)
(3 -2.21579e-15 0)
(3 -2.44832e-15 0)
(3 -1.84583e-15 0)
(3 -7.79684e-16 0)
(3 4.83175e-16 0)
(3 1.08063e-15 0)
(3 1.65273e-15 0)
(3 1.37096e-15 0)
(3 1.63162e-15 0)
(3 3.44349e-16 0)
(3 -9.43036e-16 0)
(3 -1.1577e-15 0)
(3 1.28835e-16 0)
(3 9.01087e-16 0)
(3 1.22566e-15 0)
(3 7.40659e-16 0)
(3 5.82841e-16 0)
(3 1.1176e-15 0)
(3 1.59137e-15 0)
(3 1.23341e-15 0)
(3 -6.44138e-16 0)
(3 -7.81367e-16 0)
(3 1.94226e-16 0)
(3 1.44472e-15 0)
(3 1.68433e-15 0)
(3 1.75677e-15 0)
(3 2.16308e-15 0)
(3 1.27641e-15 0)
(2.9609 0.0186895 0)
(0.897172 0.438371 0)
(0.33524 0.468357 0)
(0.246096 0.404209 0)
(0.167099 0.357037 0)
(0.0991087 0.345535 0)
(0.0708462 0.330043 0)
(0.0263218 0.344112 0)
(3 2.58572e-17 0)
(3 1.32495e-16 0)
(3 4.09838e-16 0)
(3 3.39744e-16 0)
(3 -9.49624e-16 0)
(3 -7.24892e-16 0)
(3 -8.54255e-16 0)
(3 -2.89856e-16 0)
(3 -4.30876e-16 0)
(3 -2.59999e-16 0)
(3 -7.35709e-16 0)
(3 -1.32793e-15 0)
(3 -7.17774e-16 0)
(3 -6.97313e-16 0)
(3 -5.7394e-16 0)
(3 -6.66612e-16 0)
(3 -8.80912e-16 0)
(3 -1.05149e-15 0)
(3 5.58681e-16 0)
(3 1.91837e-15 0)
(3 1.79964e-15 0)
(3 1.42917e-15 0)
(3 1.04841e-15 0)
(3 -1.41786e-16 0)
(3 -2.6291e-16 0)
(3 1.41691e-16 0)
(3 7.0471e-16 0)
(3 7.07453e-16 0)
(3 2.67582e-16 0)
(3 3.42909e-16 0)
(3 1.47692e-15 0)
(3 1.09235e-15 0)
(3 -9.13968e-16 0)
(3 -1.56542e-15 0)
(3 -1.46686e-15 0)
(3 -1.39734e-15 0)
(3 -3.75657e-16 0)
(3 -1.31815e-16 0)
(3 3.7313e-16 0)
(3 -5.42329e-16 0)
(2.99999 7.18175e-05 0)
(1.31869 0.48715 0)
(0.43245 0.556147 0)
(0.275427 0.494108 0)
(0.2114 0.425079 0)
(0.133122 0.414101 0)
(0.0902857 0.394334 0)
(0.0267593 0.410028 0)
(3 -1.48249e-16 0)
(3 -1.03613e-16 0)
(3 -2.04684e-16 0)
(3 1.59086e-17 0)
(3 2.9789e-16 0)
(3 -9.51741e-16 0)
(3 -9.0534e-16 0)
(3 -8.42318e-16 0)
(3 -7.41464e-16 0)
(3 -1.32054e-15 0)
(3 -1.46159e-15 0)
(3 -5.58081e-16 0)
(3 5.02314e-16 0)
(3 5.56405e-16 0)
(3 5.91639e-17 0)
(3 -1.22394e-15 0)
(3 -2.69972e-15 0)
(3 -3.61772e-15 0)
(3 -3.23451e-15 0)
(3 -1.46748e-15 0)
(3 -1.05381e-15 0)
(3 -5.51202e-16 0)
(3 -9.82062e-17 0)
(3 1.25794e-16 0)
(3 2.42105e-16 0)
(3 8.43548e-16 0)
(3 -3.41217e-16 0)
(3 -7.1594e-16 0)
(3 -5.38966e-16 0)
(3 -8.27482e-16 0)
(3 -1.44985e-15 0)
(3 -1.66058e-15 0)
(3 -4.47373e-16 0)
(3 -5.17834e-16 0)
(3 -2.20384e-15 0)
(3 -3.12653e-15 0)
(3 -2.47646e-15 0)
(3 -1.56151e-15 0)
(3 -1.50366e-15 0)
(3 -1.72036e-15 0)
(3 1.06511e-09 0)
(1.94418 0.457361 0)
(0.570715 0.626745 0)
(0.3214 0.583226 0)
(0.286083 0.507145 0)
(0.202595 0.493947 0)
(0.1254 0.473286 0)
(0.0362404 0.49034 0)
(3 1.99594e-17 0)
(3 -5.51578e-16 0)
(3 -2.59492e-16 0)
(3 8.74157e-17 0)
(3 4.61506e-16 0)
(3 -1.0729e-16 0)
(3 -5.10972e-16 0)
(3 -1.07068e-15 0)
(3 -9.78166e-16 0)
(3 -7.37191e-16 0)
(3 -2.28575e-16 0)
(3 6.42661e-17 0)
(3 -4.87095e-16 0)
(3 -7.46127e-16 0)
(3 -1.43267e-15 0)
(3 -1.59554e-15 0)
(3 -2.07313e-15 0)
(3 -3.59818e-15 0)
(3 -4.4719e-15 0)
(3 -4.42739e-15 0)
(3 -3.80587e-15 0)
(3 -2.46574e-15 0)
(3 -9.8537e-16 0)
(3 1.25167e-15 0)
(3 1.86966e-15 0)
(3 2.10841e-15 0)
(3 1.22409e-15 0)
(3 3.82198e-16 0)
(3 -1.04671e-15 0)
(3 -1.97722e-15 0)
(3 -3.00547e-15 0)
(3 -2.92185e-15 0)
(3 -2.52451e-15 0)
(3 -1.57219e-15 0)
(3 -1.00048e-15 0)
(3 -7.56979e-16 0)
(3 -1.07774e-15 0)
(3 -1.39867e-15 0)
(3 -1.28346e-15 0)
(3 -9.8061e-16 0)
(3 5.27411e-15 0)
(2.70458 0.233798 0)
(0.803069 0.691045 0)
(0.419304 0.67835 0)
(0.379505 0.615235 0)
(0.264108 0.605323 0)
(0.141607 0.584263 0)
(0.0328104 0.595069 0)
(3 -1.24117e-16 0)
(3 3.11086e-16 0)
(3 3.41522e-16 0)
(3 3.82975e-16 0)
(3 3.22953e-16 0)
(3 8.94274e-16 0)
(3 6.85096e-16 0)
(3 9.30855e-16 0)
(3 9.1819e-16 0)
(3 1.75805e-15 0)
(3 1.79293e-15 0)
(3 9.13157e-16 0)
(3 -7.54039e-17 0)
(3 -1.26628e-15 0)
(3 -1.38895e-15 0)
(3 -1.38333e-15 0)
(3 -1.03178e-15 0)
(3 -1.19037e-15 0)
(3 -1.05351e-15 0)
(3 -1.24211e-15 0)
(3 -1.45073e-15 0)
(3 -9.26382e-16 0)
(3 -1.12045e-16 0)
(3 7.17404e-16 0)
(3 1.33732e-15 0)
(3 1.52399e-15 0)
(3 1.85125e-15 0)
(3 2.20494e-15 0)
(3 2.44765e-17 0)
(3 -9.97106e-16 0)
(3 -1.12284e-15 0)
(3 -1.12837e-15 0)
(3 -1.74563e-15 0)
(3 -2.18573e-15 0)
(3 -1.83615e-16 0)
(3 1.96249e-15 0)
(3 1.38507e-15 0)
(3 2.41726e-16 0)
(3 -8.76731e-16 0)
(3 -6.63453e-16 0)
(3 -1.27065e-15 0)
(3.00647 0.0153846 0)
(1.31745 0.726099 0)
(0.566205 0.799623 0)
(0.471661 0.759797 0)
(0.347903 0.716258 0)
(0.213599 0.687237 0)
(0.0853669 0.721965 0)
(3 -3.95262e-17 0)
(3 3.55556e-16 0)
(3 7.37672e-16 0)
(3 3.1399e-16 0)
(3 3.59249e-16 0)
(3 1.07768e-15 0)
(3 1.50235e-15 0)
(3 1.88802e-15 0)
(3 2.69051e-15 0)
(3 2.94903e-15 0)
(3 2.20954e-15 0)
(3 1.38876e-15 0)
(3 9.39879e-16 0)
(3 7.37707e-17 0)
(3 -3.86117e-16 0)
(3 1.41908e-16 0)
(3 8.08155e-16 0)
(3 1.52585e-15 0)
(3 1.53853e-15 0)
(3 1.22791e-15 0)
(3 1.4096e-15 0)
(3 1.73796e-15 0)
(3 1.21757e-15 0)
(3 8.59507e-16 0)
(3 1.22333e-15 0)
(3 1.0456e-15 0)
(3 1.18929e-15 0)
(3 1.79778e-15 0)
(3 2.08397e-15 0)
(3 2.12489e-15 0)
(3 1.85316e-15 0)
(3 1.26848e-15 0)
(3 2.79717e-16 0)
(3 -8.0871e-17 0)
(3 2.12919e-16 0)
(3 3.82069e-16 0)
(3 3.26631e-16 0)
(3 -1.40716e-17 0)
(3 -7.26093e-16 0)
(3 -1.34594e-15 0)
(3 -1.57975e-15 0)
(3.00006 4.24579e-05 0)
(2.24325 0.548765 0)
(0.798908 0.900923 0)
(0.5512 0.898603 0)
(0.464224 0.810774 0)
(0.305128 0.857919 0)
(0.152273 1.00957 0)
(3 1.34349e-16 0)
(3 -9.81288e-16 0)
(3 -1.28844e-15 0)
(3 -1.09946e-15 0)
(3 -1.98753e-16 0)
(3 9.77534e-16 0)
(3 2.68007e-15 0)
(3 2.77599e-15 0)
(3 3.37293e-15 0)
(3 3.11005e-15 0)
(3 1.96219e-15 0)
(3 3.84683e-16 0)
(3 -3.6718e-16 0)
(3 -1.12005e-15 0)
(3 -2.04294e-16 0)
(3 9.32725e-16 0)
(3 1.17038e-15 0)
(3 2.27428e-15 0)
(3 2.0687e-15 0)
(3 8.72226e-16 0)
(3 8.95927e-16 0)
(3 1.50499e-15 0)
(3 1.59881e-15 0)
(3 7.87535e-16 0)
(3 3.35837e-16 0)
(3 6.19288e-16 0)
(3 2.99335e-16 0)
(3 -2.12643e-16 0)
(3 -1.02548e-16 0)
(3 1.21889e-15 0)
(3 1.25537e-15 0)
(3 8.52353e-16 0)
(3 -4.39947e-16 0)
(3 -9.02713e-16 0)
(3 -1.89746e-15 0)
(3 -2.02893e-15 0)
(3 -1.30045e-15 0)
(3 -1.29707e-15 0)
(3 -1.54098e-15 0)
(3 -2.40065e-15 0)
(3 -2.44961e-15 0)
(3 3.48661e-09 0)
(3.03395 0.093849 0)
(1.23817 0.9358 0)
(0.685265 0.981844 0)
(0.65113 0.942048 0)
(0.566802 1.08081 0)
(0.659164 1.32379 0)
(3 2.64888e-17 0)
(3 -4.41758e-16 0)
(3 -1.28404e-15 0)
(3 -9.86623e-16 0)
(3 1.89198e-16 0)
(3 5.34821e-16 0)
(3 2.75684e-15 0)
(3 2.89155e-15 0)
(3 2.02913e-15 0)
(3 1.53835e-15 0)
(3 1.89032e-15 0)
(3 1.72652e-15 0)
(3 1.29603e-15 0)
(3 1.16715e-15 0)
(3 1.41571e-15 0)
(3 1.08377e-15 0)
(3 1.06843e-15 0)
(3 1.18476e-15 0)
(3 7.73539e-16 0)
(3 1.08617e-16 0)
(3 -4.77468e-16 0)
(3 5.88204e-16 0)
(3 1.01064e-15 0)
(3 8.3805e-16 0)
(3 -8.03114e-17 0)
(3 -9.63791e-16 0)
(3 -1.12551e-15 0)
(3 -1.62305e-15 0)
(3 -1.48866e-15 0)
(3 -1.00268e-15 0)
(3 -1.72921e-15 0)
(3 -2.55104e-15 0)
(3 -3.0097e-15 0)
(3 -3.03802e-15 0)
(3 -2.79583e-15 0)
(3 -1.33587e-15 0)
(3 -5.11902e-16 0)
(3 -8.24531e-16 0)
(3 -1.75195e-15 0)
(3 -1.93209e-15 0)
(3 -7.23961e-16 0)
(3 3.48348e-14 0)
(3.00275 0.00134392 0)
(2.24796 0.664487 0)
(0.981111 1.06815 0)
(0.807743 1.11691 0)
(0.873502 1.16438 0)
(1.10088 1.25964 0)
(3 -3.52031e-16 0)
(3 6.10415e-16 0)
(3 1.24172e-15 0)
(3 8.75641e-16 0)
(3 -1.06403e-15 0)
(3 -1.62228e-15 0)
(3 -1.36869e-15 0)
(3 -1.29711e-15 0)
(3 -7.82331e-16 0)
(3 -6.23942e-16 0)
(3 1.42934e-16 0)
(3 7.74411e-16 0)
(3 1.79053e-15 0)
(3 2.09241e-15 0)
(3 1.98635e-15 0)
(3 1.18642e-15 0)
(3 -5.69594e-16 0)
(3 -1.12439e-15 0)
(3 -7.69736e-16 0)
(3 -8.49487e-18 0)
(3 4.44542e-17 0)
(3 -1.90853e-16 0)
(3 1.07764e-16 0)
(3 4.58329e-16 0)
(3 -6.35543e-17 0)
(3 -1.39409e-15 0)
(3 -1.42889e-15 0)
(3 -1.03756e-15 0)
(3 -1.17929e-15 0)
(3 -1.30849e-15 0)
(3 -1.51686e-15 0)
(3 -2.03632e-15 0)
(3 -1.78023e-15 0)
(3 -9.92657e-16 0)
(3 2.69841e-16 0)
(3 2.98917e-16 0)
(3 -1.03339e-15 0)
(3 -1.07331e-15 0)
(3 2.99743e-16 0)
(3 9.9954e-16 0)
(3 1.6925e-15 0)
(3 1.37866e-15 0)
(3 1.65952e-06 0)
(3.02275 0.0942274 0)
(1.5924 1.01881 0)
(1.02267 1.22556 0)
(1.1058 1.2106 0)
(1.37748 1.21538 0)
(3 -6.52605e-16 0)
(3 -2.72074e-16 0)
(3 9.50429e-17 0)
(3 -3.48197e-16 0)
(3 -7.70094e-16 0)
(3 -1.38212e-15 0)
(3 -2.45744e-15 0)
(3 -2.3872e-15 0)
(3 -1.14533e-15 0)
(3 -3.86395e-16 0)
(3 -9.43622e-16 0)
(3 6.66007e-16 0)
(3 3.90771e-16 0)
(3 1.44274e-16 0)
(3 -7.24346e-16 0)
(3 -9.50218e-16 0)
(3 -1.89808e-15 0)
(3 -2.70983e-15 0)
(3 -1.39781e-15 0)
(3 -3.89575e-16 0)
(3 -5.96991e-16 0)
(3 -1.33246e-15 0)
(3 -1.62729e-15 0)
(3 -1.19198e-15 0)
(3 -3.13212e-16 0)
(3 -3.47061e-16 0)
(3 -2.01555e-16 0)
(3 -1.22555e-16 0)
(3 -9.37112e-16 0)
(3 -2.12065e-15 0)
(3 -2.60715e-15 0)
(3 -2.44126e-15 0)
(3 -1.2039e-15 0)
(3 1.18973e-15 0)
(3 1.95154e-15 0)
(3 1.95714e-15 0)
(3 9.31347e-16 0)
(3 1.10405e-15 0)
(3 1.26666e-15 0)
(3 1.19376e-15 0)
(3 9.16423e-16 0)
(3 -2.53397e-17 0)
(3 5.46378e-11 0)
(3.00161 0.00142873 0)
(2.78202 0.418155 0)
(1.47611 1.15868 0)
(1.25846 1.2958 0)
(1.47642 1.25233 0)
(3 -4.08253e-17 0)
(3 -4.93402e-16 0)
(3 -7.73495e-16 0)
(3 -3.58016e-16 0)
(3 -8.26588e-16 0)
(3 -9.75105e-16 0)
(3 -5.46938e-16 0)
(3 3.7504e-16 0)
(3 1.26853e-15 0)
(3 1.84497e-15 0)
(3 3.56286e-16 0)
(3 1.22528e-17 0)
(3 3.54191e-16 0)
(3 7.54223e-16 0)
(3 2.28604e-16 0)
(3 -4.28918e-17 0)
(3 -1.21511e-17 0)
(3 -2.81307e-16 0)
(3 -1.49695e-16 0)
(3 -2.86199e-16 0)
(3 -8.68501e-16 0)
(3 -1.93897e-15 0)
(3 -2.70193e-15 0)
(3 -2.18532e-15 0)
(3 2.38015e-16 0)
(3 2.1125e-15 0)
(3 1.44663e-15 0)
(3 7.80162e-16 0)
(3 3.56081e-16 0)
(3 -2.82257e-16 0)
(3 -4.98597e-16 0)
(3 -7.48809e-16 0)
(3 4.3812e-17 0)
(3 5.29634e-16 0)
(3 8.74691e-16 0)
(3 1.62869e-15 0)
(3 1.46097e-15 0)
(3 1.54795e-15 0)
(3 1.15122e-15 0)
(3 7.33683e-16 0)
(3 2.04305e-16 0)
(3 -9.84337e-16 0)
(3 6.2969e-17 0)
(3 1.19003e-06 0)
(3.00997 0.0237875 0)
(2.47112 0.674575 0)
(1.56201 1.21583 0)
(1.54361 1.28003 0)
(3 3.0537e-16 0)
(3 5.37479e-16 0)
(3 2.46893e-16 0)
(3 2.86822e-16 0)
(3 -5.09744e-16 0)
(3 -7.21242e-16 0)
(3 8.96595e-17 0)
(3 1.00808e-15 0)
(3 1.8409e-15 0)
(3 1.60718e-15 0)
(3 5.22744e-16 0)
(3 -1.48002e-17 0)
(3 -2.9564e-17 0)
(3 1.19693e-16 0)
(3 3.3245e-16 0)
(3 6.18898e-16 0)
(3 9.22289e-16 0)
(3 1.34848e-15 0)
(3 1.25711e-15 0)
(3 1.09682e-15 0)
(3 3.20959e-16 0)
(3 -7.6236e-16 0)
(3 -1.22252e-15 0)
(3 -5.78058e-16 0)
(3 5.35892e-16 0)
(3 2.12022e-15 0)
(3 5.52748e-16 0)
(3 2.45819e-16 0)
(3 9.5472e-16 0)
(3 1.45268e-15 0)
(3 2.44523e-15 0)
(3 3.04036e-15 0)
(3 1.88665e-15 0)
(3 5.26573e-16 0)
(3 -5.27672e-16 0)
(3 -1.12598e-15 0)
(3 -6.91376e-16 0)
(3 -1.35164e-16 0)
(3 7.73472e-16 0)
(3 1.31845e-15 0)
(3 1.53808e-15 0)
(3 6.88403e-16 0)
(3 -9.4381e-17 0)
(3 3.71404e-11 0)
(3.00007 0.000133882 0)
(2.99481 0.073303 0)
(2.33684 0.786798 0)
(1.7472 1.21483 0)
(3 1.29017e-16 0)
(3 -1.6317e-16 0)
(3 -5.12255e-16 0)
(3 -6.34564e-16 0)
(3 2.57107e-16 0)
(3 8.53333e-16 0)
(3 7.32584e-16 0)
(3 8.92136e-16 0)
(3 4.74355e-16 0)
(3 7.56987e-16 0)
(3 1.00128e-15 0)
(3 1.08034e-15 0)
(3 8.22135e-16 0)
(3 -1.16727e-16 0)
(3 -5.33498e-16 0)
(3 -1.1299e-15 0)
(3 -9.31796e-16 0)
(3 -8.80014e-16 0)
(3 -8.44026e-16 0)
(3 -6.59531e-16 0)
(3 -2.97314e-16 0)
(3 -4.19839e-16 0)
(3 -6.20057e-16 0)
(3 -1.78514e-15 0)
(3 -2.32337e-15 0)
(3 -1.87764e-15 0)
(3 -9.18232e-16 0)
(3 5.24423e-16 0)
(3 1.77558e-15 0)
(3 2.45179e-15 0)
(3 3.01641e-15 0)
(3 3.0054e-15 0)
(3 1.78645e-15 0)
(3 -5.9448e-16 0)
(3 -1.29514e-15 0)
(3 -1.81752e-15 0)
(3 -7.00789e-16 0)
(3 -5.33408e-17 0)
(3 3.55807e-16 0)
(3 1.12247e-15 0)
(3 1.03155e-15 0)
(3 9.60944e-16 0)
(3 4.97067e-16 0)
(3 2.719e-15 0)
(3 3.71345e-08 0)
(3.00021 0.000876234 0)
(2.96272 0.120259 0)
(2.35281 0.789131 0)
(3 -5.07005e-19 0)
(3 -3.21955e-16 0)
(3 -6.13465e-16 0)
(3 -9.07834e-16 0)
(3 1.22576e-15 0)
(3 2.97563e-15 0)
(3 2.26095e-15 0)
(3 7.40856e-16 0)
(3 -7.20513e-16 0)
(3 -4.8259e-16 0)
(3 7.99085e-16 0)
(3 2.2563e-15 0)
(3 2.19385e-15 0)
(3 1.29713e-15 0)
(3 9.46601e-16 0)
(3 -6.39553e-16 0)
(3 -1.48269e-15 0)
(3 -1.52422e-15 0)
(3 -3.0738e-15 0)
(3 -3.13203e-15 0)
(3 -2.49955e-15 0)
(3 -1.69158e-15 0)
(3 -1.26899e-15 0)
(3 -2.76993e-15 0)
(3 -3.41986e-15 0)
(3 -3.09442e-15 0)
(3 -2.01148e-15 0)
(3 -6.58292e-16 0)
(3 4.56664e-17 0)
(3 -1.35949e-16 0)
(3 4.28131e-16 0)
(3 1.17989e-15 0)
(3 1.19541e-15 0)
(3 3.90212e-16 0)
(3 -7.59044e-16 0)
(3 -1.61795e-15 0)
(3 -1.61477e-15 0)
(3 -9.92006e-16 0)
(3 -7.99194e-16 0)
(3 -9.21366e-16 0)
(3 -5.65916e-16 0)
(3 -4.06619e-16 0)
(3 -3.25572e-16 0)
(3 2.66781e-16 0)
(3 1.05356e-12 0)
(3 6.12337e-07 0)
(3.00018 0.00204321 0)
(2.934 0.139955 0)
(3 1.30609e-16 0)
(3 1.40242e-15 0)
(3 1.23319e-15 0)
(3 1.60175e-15 0)
(3 1.44661e-15 0)
(3 1.35883e-15 0)
(3 1.73391e-15 0)
(3 1.29443e-15 0)
(3 5.28147e-16 0)
(3 -9.18399e-16 0)
(3 -6.38123e-16 0)
(3 1.6457e-15 0)
(3 1.32364e-15 0)
(3 6.06417e-16 0)
(3 3.94096e-16 0)
(3 3.0534e-16 0)
(3 -1.01365e-15 0)
(3 -1.56298e-15 0)
(3 -1.96354e-15 0)
(3 -2.58393e-15 0)
(3 -3.33234e-15 0)
(3 -3.36707e-15 0)
(3 -2.31573e-15 0)
(3 -1.73603e-15 0)
(3 -1.45334e-15 0)
(3 -1.60344e-15 0)
(3 -2.20154e-15 0)
(3 -1.93219e-15 0)
(3 -1.52254e-15 0)
(3 -1.56763e-15 0)
(3 -1.1859e-15 0)
(3 -3.92403e-16 0)
(3 1.13452e-15 0)
(3 1.29474e-15 0)
(3 5.51057e-16 0)
(3 1.05227e-15 0)
(3 5.39854e-16 0)
(3 2.20076e-17 0)
(3 -8.77958e-16 0)
(3 -1.63439e-15 0)
(3 -5.4121e-16 0)
(3 1.09317e-15 0)
(3 8.57824e-16 0)
(3 6.37957e-17 0)
(3 -1.27416e-15 0)
(3 2.35009e-11 0)
(3 2.35192e-06 0)
(2.9997 0.00246849 0)
(3 4.60206e-17 0)
(3 7.63892e-17 0)
(3 2.37748e-16 0)
(3 3.23173e-16 0)
(3 -4.02172e-16 0)
(3 -1.71958e-15 0)
(3 -1.89161e-15 0)
(3 -9.06623e-16 0)
(3 -5.1937e-16 0)
(3 -7.83094e-16 0)
(3 -1.46618e-15 0)
(3 -1.40428e-15 0)
(3 -9.20875e-16 0)
(3 -4.69011e-16 0)
(3 -2.60336e-16 0)
(3 -4.85207e-16 0)
(3 -1.70044e-15 0)
(3 -2.15258e-15 0)
(3 -2.09048e-15 0)
(3 -2.14746e-15 0)
(3 -2.63075e-15 0)
(3 -2.3305e-15 0)
(3 -1.96156e-15 0)
(3 -1.24529e-15 0)
(3 -3.20885e-16 0)
(3 -8.7324e-17 0)
(3 -3.8994e-17 0)
(3 4.29424e-17 0)
(3 1.59533e-16 0)
(3 6.53515e-16 0)
(3 5.49012e-16 0)
(3 -2.97249e-17 0)
(3 3.77532e-16 0)
(3 5.5787e-16 0)
(3 6.06181e-16 0)
(3 1.54951e-15 0)
(3 1.97861e-15 0)
(3 1.70678e-15 0)
(3 1.26672e-15 0)
(3 5.76654e-16 0)
(3 2.96916e-16 0)
(3 3.12203e-16 0)
(3 -1.68906e-16 0)
(3 -1.26152e-15 0)
(3 -2.51153e-15 0)
(3 6.84453e-17 0)
(3 1.53166e-10 0)
(3 3.17227e-06 0)
(3 1.68683e-16 0)
(3 -9.52067e-16 0)
(3 -1.33674e-15 0)
(3 -1.48869e-15 0)
(3 -2.6093e-15 0)
(3 -3.69812e-15 0)
(3 -3.72719e-15 0)
(3 -3.20706e-15 0)
(3 -1.80397e-15 0)
(3 -1.67221e-15 0)
(3 -2.09894e-15 0)
(3 -3.62315e-15 0)
(3 -3.64e-15 0)
(3 -1.62423e-15 0)
(3 -8.23519e-16 0)
(3 -6.91362e-16 0)
(3 -9.02865e-16 0)
(3 -1.67808e-15 0)
(3 -1.13504e-15 0)
(3 -1.05402e-15 0)
(3 -5.05891e-17 0)
(3 5.40712e-16 0)
(3 5.57559e-16 0)
(3 1.01604e-15 0)
(3 1.21579e-15 0)
(3 1.5045e-15 0)
(3 7.93413e-16 0)
(3 6.01963e-16 0)
(3 1.1893e-15 0)
(3 1.12428e-15 0)
(3 4.05506e-16 0)
(3 3.79847e-16 0)
(3 5.25355e-16 0)
(3 4.43919e-16 0)
(3 -8.41953e-17 0)
(3 -2.49915e-17 0)
(3 3.91882e-16 0)
(3 6.80265e-16 0)
(3 5.86707e-16 0)
(3 4.41766e-16 0)
(3 -1.35916e-16 0)
(3 -7.75738e-16 0)
(3 -7.24476e-16 0)
(3 -1.34208e-15 0)
(3 -3.90762e-16 0)
(3 -2.65526e-16 0)
(3 4.30194e-15 0)
(3 2.37872e-10 0)
(3 2.87405e-16 0)
(3 2.87959e-16 0)
(3 -3.83752e-17 0)
(3 -1.21286e-15 0)
(3 -1.76792e-15 0)
(3 -1.30146e-15 0)
(3 -1.61527e-15 0)
(3 -1.39878e-15 0)
(3 -2.98191e-16 0)
(3 -8.67564e-16 0)
(3 -1.84851e-15 0)
(3 -2.50704e-15 0)
(3 -2.08648e-15 0)
(3 -1.71376e-15 0)
(3 -1.08812e-15 0)
(3 -7.54494e-16 0)
(3 -3.08759e-16 0)
(3 -1.10128e-15 0)
(3 -3.68603e-16 0)
(3 7.52459e-16 0)
(3 1.40612e-15 0)
(3 1.81688e-15 0)
(3 2.16372e-15 0)
(3 2.04325e-15 0)
(3 1.08824e-15 0)
(3 1.28705e-15 0)
(3 1.47151e-15 0)
(3 1.46833e-15 0)
(3 5.83258e-16 0)
(3 9.3526e-17 0)
(3 -2.47531e-16 0)
(3 2.84866e-16 0)
(3 8.69879e-16 0)
(3 1.12495e-15 0)
(3 1.09962e-15 0)
(3 -3.61147e-16 0)
(3 -1.29786e-15 0)
(3 -1.74942e-15 0)
(3 -2.09604e-15 0)
(3 -1.33713e-15 0)
(3 -4.35857e-16 0)
(3 -4.04514e-16 0)
(3 8.924e-16 0)
(3 2.35392e-15 0)
(3 1.96332e-15 0)
(3 1.81462e-15 0)
(3 2.07411e-15 0)
(3 7.95407e-15 0)
(3 8.01227e-17 0)
(3 6.18109e-16 0)
(3 7.15259e-16 0)
(3 -7.40001e-16 0)
(3 -5.80805e-16 0)
(3 2.3825e-16 0)
(3 7.53944e-16 0)
(3 1.10399e-15 0)
(3 8.8367e-16 0)
(3 1.05395e-15 0)
(3 6.82702e-16 0)
(3 1.29704e-15 0)
(3 1.21484e-15 0)
(3 6.1658e-16 0)
(3 6.38616e-16 0)
(3 4.82028e-16 0)
(3 1.22664e-15 0)
(3 1.36541e-15 0)
(3 8.902e-16 0)
(3 1.22399e-15 0)
(3 1.20989e-15 0)
(3 1.44805e-15 0)
(3 1.81447e-15 0)
(3 1.02421e-15 0)
(3 5.95871e-16 0)
(3 8.38563e-16 0)
(3 2.20618e-15 0)
(3 2.23814e-15 0)
(3 1.26563e-15 0)
(3 -1.88239e-16 0)
(3 -4.16464e-16 0)
(3 -3.40029e-16 0)
(3 -4.58932e-16 0)
(3 -3.33566e-17 0)
(3 5.42884e-16 0)
(3 4.25332e-16 0)
(3 -7.21751e-16 0)
(3 -2.56654e-15 0)
(3 -3.10716e-15 0)
(3 -2.94876e-15 0)
(3 -1.4157e-15 0)
(3 5.25945e-16 0)
(3 8.67564e-16 0)
(3 1.41079e-15 0)
(3 1.4616e-15 0)
(3 1.45354e-15 0)
(3 1.11551e-15 0)
(3 8.95951e-16 0)
(3 -4.78712e-16 0)
(3 -7.88713e-16 0)
(3 4.80921e-17 0)
(3 5.70251e-16 0)
(3 -3.87364e-16 0)
(3 3.74563e-16 0)
(3 1.32623e-15 0)
(3 1.15484e-15 0)
(3 2.66441e-16 0)
(3 6.10362e-16 0)
(3 1.20679e-15 0)
(3 2.25993e-15 0)
(3 2.33472e-15 0)
(3 2.04498e-15 0)
(3 1.40622e-15 0)
(3 1.27264e-15 0)
(3 2.09352e-15 0)
(3 4.09487e-15 0)
(3 3.41708e-15 0)
(3 1.03196e-15 0)
(3 1.78053e-16 0)
(3 3.61978e-16 0)
(3 3.34352e-16 0)
(3 -5.10597e-16 0)
(3 -3.12367e-16 0)
(3 -1.29613e-15 0)
(3 -1.19427e-15 0)
(3 -1.02424e-15 0)
(3 -3.3593e-16 0)
(3 -1.30554e-16 0)
(3 -1.06139e-15 0)
(3 -2.26316e-15 0)
(3 -2.13259e-15 0)
(3 -1.7788e-15 0)
(3 1.83065e-16 0)
(3 1.23151e-15 0)
(3 5.99691e-16 0)
(3 -2.40396e-16 0)
(3 -1.26124e-15 0)
(3 -1.39059e-15 0)
(3 -7.27981e-16 0)
(3 -4.54811e-17 0)
(3 -9.1752e-16 0)
(3 -2.08472e-15 0)
(3 -1.71956e-15 0)
(3 -4.18993e-16 0)
(3 5.01529e-16 0)
(3 3.41006e-16 0)
(3 -1.59454e-16 0)
(3 -4.25884e-16 0)
(3 -4.53518e-16 0)
(3 4.62175e-16 0)
(3 5.66596e-16 0)
(3 6.95409e-16 0)
(3 2.15619e-16 0)
(3 2.85023e-16 0)
(3 3.04094e-16 0)
(3 -9.13254e-17 0)
(3 7.2294e-16 0)
(3 1.32181e-15 0)
(3 1.58238e-15 0)
(3 1.78523e-15 0)
(3 1.59648e-15 0)
(3 1.85752e-15 0)
(3 2.38329e-15 0)
(3 2.9707e-15 0)
(3 2.74886e-15 0)
(3 1.76757e-15 0)
(3 6.87637e-16 0)
(3 -3.62192e-16 0)
(3 -6.6838e-16 0)
(3 -7.43312e-16 0)
(3 -9.20182e-16 0)
(3 -1.16957e-15 0)
(3 -1.07633e-15 0)
(3 -3.48642e-16 0)
(3 2.35798e-16 0)
(3 3.12548e-16 0)
(3 3.98695e-16 0)
(3 1.58071e-16 0)
(3 1.85996e-16 0)
(3 -9.9251e-17 0)
(3 -5.06943e-17 0)
(3 7.36905e-16 0)
(3 4.33758e-16 0)
(3 1.7045e-16 0)
(3 2.48538e-16 0)
(3 7.90689e-16 0)
(3 3.07332e-16 0)
(3 -2.05603e-16 0)
(3 -1.77892e-15 0)
(3 -2.63498e-15 0)
(3 -2.90444e-15 0)
(3 -1.87195e-15 0)
(3 -6.37637e-17 0)
(3 5.94357e-16 0)
(3 3.74367e-16 0)
(3 3.9049e-16 0)
(3 4.52899e-16 0)
(3 4.91632e-16 0)
(3 1.21062e-15 0)
(3 9.86136e-16 0)
(3 6.95308e-16 0)
(3 6.72931e-16 0)
(3 1.28853e-15 0)
(3 5.82321e-16 0)
(3 1.34949e-15 0)
(3 7.03974e-16 0)
(3 8.69067e-16 0)
(3 3.76897e-16 0)
(3 6.12324e-16 0)
(3 1.08852e-15 0)
(3 1.1285e-15 0)
(3 1.88817e-17 0)
(3 8.37433e-17 0)
(3 2.72932e-16 0)
(3 2.42559e-16 0)
(3 1.1991e-16 0)
(3 2.66208e-16 0)
(3 4.91584e-16 0)
(3 1.73155e-17 0)
(3 1.27107e-16 0)
(3 2.9786e-16 0)
(3 4.86095e-16 0)
(3 6.8041e-17 0)
(3 2.31131e-16 0)
(3 1.70324e-15 0)
(3 1.95882e-15 0)
(3 1.42031e-15 0)
(3 3.87635e-16 0)
(3 -7.36894e-16 0)
(3 -1.55552e-15 0)
(3 -1.09717e-15 0)
(3 -4.49329e-16 0)
(3 8.06695e-16 0)
(3 1.1071e-15 0)
(3 4.12932e-16 0)
(3 8.92963e-17 0)
(3 -2.01472e-16 0)
(3 -2.82594e-16 0)
(3 -1.45508e-17 0)
(3 -3.56516e-16 0)
(3 -1.79707e-15 0)
(3 -2.5548e-15 0)
(3 3.96029e-17 0)
(3 -3.67295e-16 0)
(3 -4.77068e-17 0)
(3 1.6843e-16 0)
(3 1.02179e-15 0)
(3 1.01234e-15 0)
(3 1.24707e-15 0)
(3 8.40011e-16 0)
(3 4.82728e-16 0)
(3 1.00413e-16 0)
(3 1.13692e-17 0)
(3 -7.66584e-16 0)
(3 -7.64443e-16 0)