/*--------------------------------*- C++ -*----------------------------------*\
  =========                 |
  \\      /  F ield         | OpenFOAM: The Open Source CFD Toolbox
   \\    /   O peration     | Website:  https://openfoam.org
    \\  /    A nd           | Version:  7
     \\/     M anipulation  |
\*---------------------------------------------------------------------------*/
FoamFile
{
    version     2.0;
    format      ascii;
    class       surfaceScalarField;
    location    "0.1";
    object      phi;
}
// * * * * * * * * * * * * * * * * * * * * * * * * * * * * * * * * * * * * * //

dimensions      [1 0 -1 0 0 0 0];

internalField   nonuniform List<scalar> 
10325
(
0.00840003
-1.0571e-18
0.00840003
1.12486e-17
0.00840003
7.73307e-17
0.00840003
3.89906e-16
0.00840003
1.63904e-15
0.00840003
6.47908e-15
0.00840003
2.49823e-14
0.00840003
9.42874e-14
0.00840002
3.52874e-13
0.0084
1.30238e-12
0.00839996
4.78866e-12
0.00839986
1.7485e-11
0.0083996
6.37689e-11
0.0083989
2.3249e-10
0.00839706
8.443e-10
0.00839216
3.06805e-09
0.00837908
1.10103e-08
0.00834417
3.97662e-08
0.00825236
1.44793e-07
0.00802336
5.76979e-07
0.00745981
2.8122e-06
0.00593127
1.82282e-05
-0.00267904
0.000209516
-0.00350505
0.00055005
0.000415323
0.00840003
1.8838e-17
0.00840003
1.46774e-16
0.00840003
6.42688e-16
0.00840003
2.43859e-15
0.00840003
8.96451e-15
0.00840003
3.25221e-14
0.00840003
1.17336e-13
0.00840003
4.19544e-13
0.00840002
1.4933e-12
0.0084
5.27374e-12
0.00839996
1.85626e-11
0.00839986
6.50571e-11
0.0083996
2.27689e-10
0.0083989
7.97086e-10
0.00839707
2.78357e-09
0.0083922
9.7312e-09
0.0083792
3.37339e-08
0.00834457
1.17643e-07
0.00825361
4.15019e-07
0.00802731
1.59309e-06
0.00747119
7.47064e-06
0.00598482
4.57308e-05
-0.00244966
0.00050505
-0.00345395
0.00128922
0.000958801
0.00840003
1.00912e-16
0.00840003
7.61706e-16
0.00840003
3.08052e-15
0.00840003
1.10315e-14
0.00840003
3.85563e-14
0.00840003
1.33475e-13
0.00840003
4.60091e-13
0.00840003
1.57371e-12
0.00840002
5.35984e-12
0.0084
1.81147e-11
0.00839997
6.1014e-11
0.00839986
2.04363e-10
0.0083996
6.83548e-10
0.00839891
2.28185e-09
0.0083971
7.61348e-09
0.0083923
2.54033e-08
0.00837954
8.44888e-08
0.00834561
2.82547e-07
0.00825676
9.60003e-07
0.0080366
3.52602e-06
0.00749737
1.57499e-05
0.00610815
8.95511e-05
-0.00191781
0.000935506
-0.00333682
0.00236013
0.00170598
0.00840003
4.79705e-16
0.00840003
3.30866e-15
0.00840003
1.28123e-14
0.00840003
4.40948e-14
0.00840003
1.47831e-13
0.00840003
4.90519e-13
0.00840003
1.61878e-12
0.00840003
5.29964e-12
0.00840002
1.72606e-11
0.0084
5.57576e-11
0.00839997
1.79318e-10
0.00839987
5.72726e-10
0.00839961
1.82438e-09
0.00839893
5.7891e-09
0.00839718
1.83571e-08
0.00839254
5.82062e-08
0.00838027
1.84603e-07
0.00834779
5.90165e-07
0.00826293
1.92342e-06
0.00805343
6.74684e-06
0.00754223
2.85297e-05
0.00630964
0.000149793
-0.0010115
0.00146534
-0.00314701
0.00372944
0.00261346
0.00840003
1.93045e-15
0.00840003
1.28495e-14
0.00840003
4.82891e-14
0.00840003
1.59813e-13
0.00840003
5.12398e-13
0.00840003
1.62293e-12
0.00840003
5.10595e-12
0.00840003
1.59324e-11
0.00840002
4.94217e-11
0.00840001
1.52019e-10
0.00839997
4.6517e-10
0.00839987
1.4124e-09
0.00839962
4.27289e-09
0.00839898
1.2854e-08
0.00839732
3.86258e-08
0.00839298
1.15897e-07
0.00838161
3.48965e-07
0.00835163
1.06134e-06
0.00827326
3.31323e-06
0.00807883
1.11089e-05
0.00760432
4.456e-05
0.00655975
0.000218769
-7.57608e-06
0.00195797
-0.002857
0.00531414
0.00374111
0.00840003
6.76174e-15
0.00840003
4.39292e-14
0.00840003
1.60465e-13
0.00840003
5.11627e-13
0.00840003
1.57114e-12
0.00840003
4.75373e-12
0.00840003
1.42586e-11
0.00840003
4.23879e-11
0.00840002
1.25118e-10
0.00840001
3.66146e-10
0.00839997
1.0649e-09
0.00839988
3.07211e-09
0.00839965
8.82132e-09
0.00839905
2.51609e-08
0.00839754
7.16345e-08
0.00839366
2.03356e-07
0.00838359
5.79924e-07
0.00835731
1.66923e-06
0.00828852
4.95345e-06
0.00811473
1.57502e-05
0.00768671
5.95274e-05
0.00681718
0.00027793
0.00131728
0.00221368
-0.00240453
0.00706405
0.00526531
0.00840003
2.01984e-14
0.00840003
1.29482e-13
0.00840003
4.62255e-13
0.00840003
1.42292e-12
0.00840003
4.18816e-12
0.00840003
1.21093e-11
0.00840003
3.46495e-11
0.00840003
9.82312e-11
0.00840002
2.76324e-10
0.00840001
7.70887e-10
0.00839997
2.13651e-09
0.00839989
5.87629e-09
0.00839968
1.60773e-08
0.00839916
4.36895e-08
0.00839783
1.18378e-07
0.00839448
3.19508e-07
0.00838592
8.65576e-07
0.008364
2.36251e-06
0.00830736
6.63756e-06
0.00816455
1.97895e-05
0.00780954
6.8874e-05
0.00709964
0.000296002
0.00310377
0.00202304
-0.00172729
0.00887528
0.00751601
0.00840003
5.256e-14
0.00840003
3.30505e-13
0.00840003
1.14902e-12
0.00840003
3.41967e-12
0.00840003
9.68228e-12
0.00840003
2.6864e-11
0.00840003
7.36771e-11
0.00840003
2.00164e-10
0.00840002
5.39501e-10
0.00840001
1.44296e-09
0.00839998
3.83502e-09
0.00839991
1.01254e-08
0.00839972
2.66024e-08
0.00839927
6.94879e-08
0.00839813
1.80958e-07
0.0083953
4.69362e-07
0.00838818
1.22009e-06
0.00837034
3.18642e-06
0.00832503
8.52286e-06
0.00821179
2.39259e-05
0.00794023
7.63965e-05
0.00734757
0.000296499
0.00493397
0.00169771
-0.00104951
0.00986759
0.0109296
0.00840003
1.03089e-13
0.00840003
6.46314e-13
0.00840003
2.22485e-12
0.00840003
6.48477e-12
0.00840003
1.78669e-11
0.00840003
4.81132e-11
0.00840003
1.27951e-10
0.00840003
3.3706e-10
0.00840002
8.81075e-10
0.00840001
2.28696e-09
0.00839999
5.90367e-09
0.00839993
1.5158e-08
0.00839977
3.87772e-08
0.00839939
9.87616e-08
0.00839843
2.51027e-07
0.00839605
6.35817e-07
0.00839014
1.61306e-06
0.00837566
4.09972e-06
0.00833962
1.06159e-05
0.0082515
2.84962e-05
0.00804459
8.48856e-05
0.00757538
0.000301648
0.00614329
0.00147699
0.000762457
0.00970652
0.015991
0.00840003
1.77956e-13
0.00840003
1.08556e-12
0.00840003
3.63105e-12
0.00840003
1.03237e-11
0.00840003
2.77751e-11
0.00840003
7.31115e-11
0.00840003
1.90169e-10
0.00840003
4.9053e-10
0.00840002
1.25558e-09
0.00840002
3.19449e-09
0.0084
8.07784e-09
0.00839995
2.03474e-08
0.00839982
5.1023e-08
0.00839951
1.27764e-07
0.00839874
3.18947e-07
0.0083968
7.97387e-07
0.00839198
1.9909e-06
0.00838022
5.00883e-06
0.00835158
1.27024e-05
0.00828422
3.33268e-05
0.00813156
9.37479e-05
0.00779227
0.000305102
0.00692361
0.00133601
0.00369331
0.0077695
0.0233052
0.00840003
1.30075e-13
0.00840003
8.09021e-13
0.00840003
2.76671e-12
0.00840003
8.04305e-12
0.00840003
2.2127e-11
0.00840003
5.94826e-11
0.00840003
1.57764e-10
0.00840003
4.14062e-10
0.00840003
1.0767e-09
0.00840002
2.77673e-09
0.00840001
7.10789e-09
0.00839998
1.80794e-08
0.00839989
4.57352e-08
0.00839969
1.15206e-07
0.00839917
2.8925e-07
0.00839789
7.24886e-07
0.00839472
1.8156e-06
0.00838694
4.55703e-06
0.00836816
1.15148e-05
0.00832407
2.96362e-05
0.00822485
7.9945e-05
0.00804091
0.000239795
0.00791017
0.000924431
0.00866641
0.00479744
0.0156861
0.0145552
0.00840003
5.91082e-14
0.00840003
3.72602e-13
0.00840003
1.29585e-12
0.00840003
3.8437e-12
0.00840003
1.08247e-11
0.00840003
2.98512e-11
0.00840003
8.13257e-11
0.00840003
2.19475e-10
0.00840003
5.8741e-10
0.00840003
1.5608e-09
0.00840002
4.11999e-09
0.0084
1.08143e-08
0.00839995
2.82296e-08
0.00839984
7.33469e-08
0.00839954
1.89503e-07
0.00839881
4.87475e-07
0.00839701
1.24671e-06
0.00839263
3.18125e-06
0.00838209
8.09291e-06
0.0083571
2.07532e-05
0.0083017
5.41037e-05
0.00820162
0.000150833
0.00822423
0.000495919
0.00979954
0.00219
0.0100857
0.0128198
0.00840003
1.9953e-14
0.00840003
1.27197e-13
0.00840003
4.48633e-13
0.00840003
1.35389e-12
0.00840003
3.88733e-12
0.00840003
1.09386e-11
0.00840003
3.04195e-11
0.00840003
8.38221e-11
0.00840003
2.29198e-10
0.00840003
6.22595e-10
0.00840003
1.68212e-09
0.00840002
4.52399e-09
0.0084
1.21213e-08
0.00839995
3.23582e-08
0.00839982
8.60872e-08
0.00839949
2.28094e-07
0.00839862
6.02015e-07
0.0083964
1.58142e-06
0.00839072
4.14266e-06
0.0083763
1.08386e-05
0.00834095
2.86115e-05
0.00826446
7.78319e-05
0.00818429
0.000232994
0.00867575
0.000897243
0.00474168
0.011344
0.00840003
5.40871e-15
0.00840003
3.47712e-14
0.00840003
1.23774e-13
0.00840003
3.78201e-13
0.00840003
1.10116e-12
0.00840003
3.14257e-12
0.00840003
8.85993e-12
0.00840003
2.47397e-11
0.00840003
6.85263e-11
0.00840003
1.88554e-10
0.00840003
5.16171e-10
0.00840003
1.40773e-09
0.00840002
3.8301e-09
0.00840001
1.04044e-08
0.00839998
2.82432e-08
0.00839988
7.66022e-08
0.0083996
2.07696e-07
0.00839881
5.62356e-07
0.00839658
1.52267e-06
0.0083905
4.11725e-06
0.00837423
1.11871e-05
0.00833549
3.06631e-05
0.0082641
8.783e-05
0.0084062
0.000284385
0.00134038
0.0106716
0.00840003
1.2294e-15
0.00840003
8.05077e-15
0.00840003
2.89462e-14
0.00840003
8.93904e-14
0.00840003
2.63096e-13
0.00840003
7.58549e-13
0.00840003
2.15847e-12
0.00840003
6.07637e-12
0.00840003
1.69481e-11
0.00840003
4.69015e-11
0.00840003
1.28974e-10
0.00840003
3.52996e-10
0.00840003
9.63089e-10
0.00840003
2.62348e-09
0.00840003
7.14398e-09
0.00840002
1.94721e-08
0.00839999
5.31578e-08
0.00839989
1.45499e-07
0.00839958
3.99363e-07
0.00839853
1.10076e-06
0.00839523
3.04867e-06
0.00838509
8.52045e-06
0.00836168
2.42217e-05
0.00833225
7.25507e-05
0.000266823
0.00896988
0.00840003
2.31016e-16
0.00840003
1.59771e-15
0.00840003
5.831e-15
0.00840003
1.82252e-14
0.00840003
5.42546e-14
0.00840003
1.58053e-13
0.00840003
4.53849e-13
0.00840003
1.28751e-12
0.00840003
3.61315e-12
0.00840003
1.00428e-11
0.00840003
2.76849e-11
0.00840003
7.58019e-11
0.00840003
2.06447e-10
0.00840003
5.6014e-10
0.00840003
1.51615e-09
0.00840003
4.1e-09
0.00840003
1.10888e-08
0.00840004
3.00414e-08
0.00840006
8.15951e-08
0.0084001
2.22692e-07
0.00840017
6.11215e-07
0.00840035
1.69352e-06
0.00840097
4.74119e-06
0.00840723
1.35706e-05
4.07692e-05
0.00848513
0.00840003
3.53179e-17
0.00840003
2.72839e-16
0.00840003
1.04926e-15
0.00840003
3.33614e-15
0.00840003
1.00532e-14
0.00840003
2.9524e-14
0.00840003
8.53453e-14
0.00840003
2.43353e-13
0.00840003
6.85423e-13
0.00840003
1.90907e-12
0.00840003
5.26405e-12
0.00840003
1.43883e-11
0.00840003
3.90333e-11
0.00840003
1.0525e-10
0.00840003
2.82429e-10
0.00840003
7.55288e-10
0.00840003
2.01511e-09
0.00840004
5.37036e-09
0.00840005
1.43099e-08
0.00840009
3.81663e-08
0.00840021
1.02029e-07
0.00840055
2.73634e-07
0.00840155
7.38076e-07
0.00840481
2.00101e-06
5.48044e-06
0.00841713
0.00840003
4.17418e-18
0.00840003
3.87331e-17
0.00840003
1.55746e-16
0.00840003
5.32181e-16
0.00840003
1.64438e-15
0.00840003
4.91789e-15
0.00840003
1.43627e-14
0.00840003
4.12909e-14
0.00840003
1.17e-13
0.00840003
3.27301e-13
0.00840003
9.0473e-13
0.00840003
2.47395e-12
0.00840003
6.6988e-12
0.00840003
1.79822e-11
0.00840003
4.7904e-11
0.00840003
1.2679e-10
0.00840003
3.3372e-10
0.00840003
8.74353e-10
0.00840004
2.28197e-09
0.00840005
5.93689e-09
0.00840007
1.54063e-08
0.00840015
3.98889e-08
0.00840038
1.03094e-07
0.00840103
2.6569e-07
6.82016e-07
0.008403
0.00840003
1.89735e-19
0.00840003
4.3097e-18
0.00840003
1.92175e-17
0.00840003
7.04731e-17
0.00840003
2.36058e-16
0.00840003
7.4463e-16
0.00840003
2.22692e-15
0.00840003
6.47326e-15
0.00840003
1.84576e-14
0.00840003
5.17957e-14
0.00840003
1.43389e-13
0.00840003
3.91937e-13
0.00840003
1.05895e-12
0.00840003
2.83042e-12
0.00840003
7.49132e-12
0.00840003
1.9649e-11
0.00840003
5.1119e-11
0.00840003
1.31982e-10
0.00840003
3.3843e-10
0.00840003
8.61876e-10
0.00840004
2.18123e-09
0.00840005
5.48089e-09
0.00840009
1.36769e-08
0.00840018
3.37992e-08
8.25929e-08
0.00840044
0.00840003
1.0842e-18
0.00840003
1.11131e-18
0.00840003
1.16552e-18
0.00840003
5.71917e-18
0.00840003
2.60751e-17
0.00840003
9.09375e-17
0.00840003
2.98156e-16
0.00840003
9.07423e-16
0.00840003
2.64052e-15
0.00840003
7.49929e-15
0.00840003
2.08805e-14
0.00840003
5.72828e-14
0.00840003
1.54963e-13
0.00840003
4.13927e-13
0.00840003
1.09248e-12
0.00840003
2.85084e-12
0.00840003
7.36044e-12
0.00840003
1.88081e-11
0.00840003
4.75933e-11
0.00840003
1.19246e-10
0.00840003
2.95918e-10
0.00840003
7.26686e-10
0.00840004
1.76558e-09
0.00840005
4.23509e-09
1.00142e-08
0.00840008
0.00840003
-5.14996e-19
0.00840003
-2.1684e-19
0.00840003
3.79471e-19
0.00840003
7.04731e-19
0.00840003
1.21973e-18
0.00840003
7.5081e-18
0.00840003
2.968e-17
0.00840003
1.04924e-16
0.00840003
3.38894e-16
0.00840003
1.0037e-15
0.00840003
2.85208e-15
0.00840003
7.87903e-15
0.00840003
2.13732e-14
0.00840003
5.70785e-14
0.00840003
1.50322e-13
0.00840003
3.90687e-13
0.00840003
1.00271e-12
0.00840003
2.54208e-12
0.00840003
6.36829e-12
0.00840003
1.57641e-11
0.00840003
3.85565e-11
0.00840003
9.31354e-11
0.00840003
2.2201e-10
0.00840003
5.21669e-10
1.20586e-09
0.00840004
0.00840003
-4.06576e-19
0.00840003
-7.58942e-19
0.00840003
-1.87025e-18
0.00840003
-1.95156e-18
0.00840003
-2.22261e-18
0.00840003
-2.81893e-18
0.00840003
-1.24683e-18
0.00840003
5.3668e-18
0.00840003
2.88669e-17
0.00840003
1.08176e-16
0.00840003
3.37539e-16
0.00840003
9.8413e-16
0.00840003
2.7198e-15
0.00840003
7.32937e-15
0.00840003
1.93617e-14
0.00840003
5.03502e-14
0.00840003
1.29008e-13
0.00840003
3.25922e-13
0.00840003
8.12063e-13
0.00840003
1.99578e-12
0.00840003
4.83701e-12
0.00840003
1.15588e-11
0.00840003
2.72111e-11
0.00840003
6.30736e-11
1.4372e-10
0.00840003
0.00840003
8.40257e-19
0.00840003
4.60786e-19
0.00840003
6.23416e-19
0.00840003
-4.06576e-19
0.00840003
-1.27394e-18
0.00840003
-1.0842e-18
0.00840003
-1.65341e-18
0.00840003
-1.30104e-18
0.00840003
1.0571e-18
0.00840003
6.31548e-18
0.00840003
2.95445e-17
0.00840003
1.00316e-16
0.00840003
3.10109e-16
0.00840003
8.78692e-16
0.00840003
2.36505e-15
0.00840003
6.19762e-15
0.00840003
1.58889e-14
0.00840003
4.00768e-14
0.00840003
9.94948e-14
0.00840003
2.43317e-13
0.00840003
5.86023e-13
0.00840003
1.39009e-12
0.00840003
3.24546e-12
0.00840003
7.45564e-12
1.6834e-11
0.00840003
0.00840003
-9.21572e-19
0.00840003
-6.50521e-19
0.00840003
-8.94467e-19
0.00840003
-7.31836e-19
0.00840003
-5.42101e-19
0.00840003
-1.0842e-19
0.00840003
2.43945e-19
0.00840003
-1.89735e-19
0.00840003
-9.75782e-19
0.00840003
-3.25261e-19
0.00840003
1.38236e-18
0.00840003
6.83047e-18
0.00840003
2.5533e-17
0.00840003
8.39172e-17
0.00840003
2.527e-16
0.00840003
6.9332e-16
0.00840003
1.82165e-15
0.00840003
4.63843e-15
0.00840003
1.15476e-14
0.00840003
2.82443e-14
0.00840003
6.78905e-14
0.00840003
1.60546e-13
0.00840003
3.73312e-13
0.00840003
8.53652e-13
1.91816e-12
0.00840003
0.00840003
1.6263e-19
0.00840003
-5.14996e-19
0.00840003
-5.42101e-19
0.00840003
-3.25261e-19
0.00840003
4.33681e-19
0.00840003
3.52366e-19
0.00840003
7.04731e-19
0.00840003
1.81604e-18
0.00840003
2.46656e-18
0.00840003
2.05998e-18
0.00840003
2.24972e-18
0.00840003
2.92735e-18
0.00840003
3.90313e-18
0.00840003
7.56231e-18
0.00840003
2.06812e-17
0.00840003
6.35342e-17
0.00840003
1.83447e-16
0.00840003
4.95995e-16
0.00840003
1.27334e-15
0.00840003
3.15039e-15
0.00840003
7.60676e-15
0.00840003
1.79896e-14
0.00840003
4.17732e-14
0.00840003
9.52932e-14
2.13561e-13
0.00840003
0.00840003
-1.6263e-19
0.00840003
5.14996e-19
0.00840003
3.25261e-19
0.00840003
4.60786e-19
0.00840003
-8.13152e-20
0.00840003
-3.79471e-19
0.00840003
-4.87891e-19
0.00840003
-4.33681e-19
0.00840003
-2.43945e-19
0.00840003
1.6263e-19
0.00840003
4.81482e-35
0.00840003
1.5992e-18
0.00840003
2.22261e-18
0.00840003
2.30393e-18
0.00840003
2.90024e-18
0.00840003
4.3097e-18
0.00840003
1.21973e-17
0.00840003
3.80013e-17
0.00840003
1.13055e-16
0.00840003
3.07642e-16
0.00840003
7.83824e-16
0.00840003
1.89201e-15
0.00840003
4.44306e-15
0.00840003
1.01622e-14
2.28159e-14
0.00840003
0.00840003
2.71051e-19
0.00840003
-1.89735e-19
0.00840003
-4.06576e-19
0.00840003
-7.04731e-19
0.00840003
-6.50521e-19
0.00840003
-5.69206e-19
0.00840003
-9.21572e-19
0.00840003
-1.00289e-18
0.00840003
-1.6263e-19
0.00840003
7.04731e-19
0.00840003
1.5992e-18
0.00840003
5.42101e-19
0.00840003
8.67362e-19
0.00840003
8.94467e-19
0.00840003
-3.79471e-19
0.00840003
-8.94467e-19
0.00840003
-1.0571e-18
0.00840003
8.67362e-19
0.00840003
6.72205e-18
0.00840003
2.33375e-17
0.00840003
6.64887e-17
0.00840003
1.77159e-16
0.00840003
4.42002e-16
0.00840003
1.03427e-15
2.36123e-15
0.00840003
0.00840003
-5.14996e-19
0.00840003
-3.52366e-19
0.00840003
-2.71051e-19
0.00840003
-8.40257e-19
0.00840003
-1.24683e-18
0.00840003
-1.70762e-18
0.00840003
-1.40946e-18
0.00840003
-1.02999e-18
0.00840003
-2.00577e-18
0.00840003
-1.13841e-18
0.00840003
-5.42101e-20
0.00840003
1.16552e-18
0.00840003
9.48677e-19
0.00840003
1.70762e-18
0.00840003
2.38524e-18
0.00840003
3.14419e-18
0.00840003
3.93023e-18
0.00840003
6.04443e-18
0.00840003
8.13152e-18
0.00840003
9.6494e-18
0.00840003
1.17636e-17
0.00840003
1.8323e-17
0.00840003
3.58871e-17
0.00840003
8.73325e-17
2.12666e-16
0.00840003
0.00840003
9.21572e-19
0.00840003
1.02999e-18
0.00840003
1.21973e-18
0.00840003
1.38236e-18
0.00840003
1.92446e-18
0.00840003
1.5992e-18
0.00840003
8.67362e-19
0.00840003
9.48677e-19
0.00840003
2.1413e-18
0.00840003
2.43945e-18
0.00840003
2.6834e-18
0.00840003
3.14419e-18
0.00840003
4.8247e-18
0.00840003
4.03865e-18
0.00840003
4.41812e-18
0.00840003
3.60497e-18
0.00840003
3.68629e-18
0.00840003
2.92735e-18
0.00840003
2.6563e-18
0.00840003
2.19551e-18
0.00840003
2.11419e-18
0.00840003
2.22261e-18
0.00840003
3.14419e-18
0.00840003
7.42678e-18
1.60733e-17
0.00840003
0.00840003
-6.77626e-19
0.00840003
-5.96311e-19
0.00840003
-3.52366e-19
0.00840003
4.87891e-19
0.00840003
4.06576e-19
0.00840003
2.98156e-19
0.00840003
9.21572e-19
0.00840003
1.30104e-18
0.00840003
1.87025e-18
0.00840003
1.78893e-18
0.00840003
1.54499e-18
0.00840003
1.68051e-18
0.00840003
1.46367e-18
0.00840003
2.05998e-18
0.00840003
1.35525e-18
0.00840003
2.08709e-18
0.00840003
2.33103e-18
0.00840003
2.22261e-18
0.00840003
1.76183e-18
0.00840003
2.22261e-18
0.00840003
1.89735e-18
0.00840003
2.03288e-18
0.00840003
2.11419e-18
0.00840003
1.21973e-18
1.5992e-18
0.00840003
0.00840003
-1.35525e-19
0.00840003
1.6263e-19
0.00840003
-3.25261e-19
0.00840003
-8.40257e-19
0.00840003
-8.13152e-19
0.00840003
-4.87891e-19
0.00840003
-4.06576e-19
0.00840003
4.87891e-19
0.00840003
0
0.00840003
7.31836e-19
0.00840003
1.51788e-18
0.00840003
1.87025e-18
0.00840003
1.02999e-18
0.00840003
2.98156e-19
0.00840003
5.42101e-20
0.00840003
-1.27394e-18
0.00840003
-2.84603e-18
0.00840003
-3.11708e-18
0.00840003
-2.79182e-18
0.00840003
-2.1684e-18
0.00840003
-1.0571e-18
0.00840003
-5.14996e-19
0.00840003
-3.52366e-19
0.00840003
1.46367e-18
1.68051e-18
0.00840003
0.00840003
2.98156e-19
0.00840003
3.52366e-19
0.00840003
3.52366e-19
0.00840003
6.50521e-19
0.00840003
3.52366e-19
0.00840003
1.16552e-18
0.00840003
2.43945e-18
0.00840003
2.24972e-18
0.00840003
3.30682e-18
0.00840003
2.90024e-18
0.00840003
3.00866e-18
0.00840003
2.35814e-18
0.00840003
1.49078e-18
0.00840003
8.13152e-19
0.00840003
-8.94467e-19
0.00840003
-1.70762e-18
0.00840003
-2.03288e-18
0.00840003
-3.7405e-18
0.00840003
-4.25549e-18
0.00840003
-4.17418e-18
0.00840003
-3.03577e-18
0.00840003
-1.87025e-18
0.00840003
2.1684e-19
0.00840003
5.96311e-19
9.75782e-19
0.00840003
0.00840003
-4.87891e-19
0.00840003
-1.32815e-18
0.00840003
-1.02999e-18
0.00840003
-7.04731e-19
0.00840003
2.98156e-19
0.00840003
5.69206e-19
0.00840003
1.0571e-18
0.00840003
1.19262e-18
0.00840003
1.02999e-18
0.00840003
1.32815e-18
0.00840003
5.42101e-20
0.00840003
-5.14996e-19
0.00840003
-1.76183e-18
0.00840003
-3.41524e-18
0.00840003
-2.73761e-18
0.00840003
-2.41235e-18
0.00840003
-2.35814e-18
0.00840003
-1.27394e-18
0.00840003
-1.00289e-18
0.00840003
-1.30104e-18
0.00840003
-1.76183e-18
0.00840003
-1.73472e-18
0.00840003
-2.41235e-18
0.00840003
-2.30393e-18
-1.70762e-18
0.00840003
0.00840003
1.89735e-19
0.00840003
6.50521e-19
0.00840003
5.42101e-20
0.00840003
-1.0842e-19
0.00840003
3.79471e-19
0.00840003
6.77626e-19
0.00840003
4.33681e-19
0.00840003
7.31836e-19
0.00840003
-2.71051e-20
0.00840003
-1.0571e-18
0.00840003
-1.65341e-18
0.00840003
-2.33103e-18
0.00840003
-2.38524e-18
0.00840003
-1.73472e-18
0.00840003
-1.68051e-18
0.00840003
-7.31836e-19
0.00840003
6.77626e-19
0.00840003
1.21973e-18
0.00840003
1.70762e-18
0.00840003
2.1413e-18
0.00840003
1.49078e-18
0.00840003
8.13152e-19
0.00840003
6.77626e-19
0.00840003
-6.50521e-19
-1.57209e-18
0.00840003
0.00840003
-1.6263e-19
0.00840003
1.0842e-19
0.00840003
6.23416e-19
0.00840003
2.43945e-19
0.00840003
-1.32815e-18
0.00840003
-1.92446e-18
0.00840003
-1.89735e-18
0.00840003
-2.30393e-18
0.00840003
-1.78893e-18
0.00840003
-1.49078e-18
0.00840003
-1.13841e-18
0.00840003
-7.58942e-19
0.00840003
-1.89735e-19
0.00840003
1.00289e-18
0.00840003
1.35525e-18
0.00840003
1.5992e-18
0.00840003
1.11131e-18
0.00840003
3.25261e-19
0.00840003
-1.11131e-18
0.00840003
-1.51788e-18
0.00840003
-7.58942e-19
0.00840003
1.35525e-19
0.00840003
-1.0842e-19
0.00840003
2.71051e-19
-3.79471e-19
0.00840003
0.00840003
2.71051e-20
0.00840003
-2.98156e-19
0.00840003
-7.86047e-19
0.00840003
-1.0842e-18
0.00840003
-1.49078e-18
0.00840003
-1.97867e-18
0.00840003
-2.24972e-18
0.00840003
-1.73472e-18
0.00840003
-1.35525e-18
0.00840003
-5.96311e-19
0.00840003
-5.42101e-19
0.00840003
-1.02999e-18
0.00840003
-1.46367e-18
0.00840003
-2.19551e-18
0.00840003
-1.89735e-18
0.00840003
-1.89735e-18
0.00840003
-1.92446e-18
0.00840003
-1.46367e-18
0.00840003
-6.77626e-19
0.00840003
-1.32815e-18
0.00840003
-1.38236e-18
0.00840003
-2.00577e-18
0.00840003
-1.81604e-18
0.00840003
-1.76183e-18
-5.14996e-19
0.00840003
0.00840003
-2.71051e-19
0.00840003
5.42101e-20
0.00840003
8.40257e-19
0.00840003
1.68051e-18
0.00840003
2.35814e-18
0.00840003
2.24972e-18
0.00840003
2.05998e-18
0.00840003
1.16552e-18
0.00840003
2.43945e-19
0.00840003
-1.5992e-18
0.00840003
-2.98156e-18
0.00840003
-2.52077e-18
0.00840003
-1.57209e-18
0.00840003
-1.89735e-19
0.00840003
-2.71051e-20
0.00840003
-4.60786e-19
0.00840003
2.71051e-19
0.00840003
1.00289e-18
0.00840003
1.21973e-18
0.00840003
1.6263e-18
0.00840003
8.40257e-19
0.00840003
0
0.00840003
-9.48677e-19
0.00840003
-1.30104e-18
-2.35814e-18
0.00840003
0.00840003
3.79471e-19
0.00840003
2.71051e-20
0.00840003
-1.35525e-19
0.00840003
1.6263e-19
0.00840003
9.21572e-19
0.00840003
8.67362e-19
0.00840003
-1.6263e-19
0.00840003
-1.46367e-18
0.00840003
-2.38524e-18
0.00840003
-1.70762e-18
0.00840003
-7.31836e-19
0.00840003
-1.54499e-18
0.00840003
-1.5992e-18
0.00840003
-2.00577e-18
0.00840003
-1.87025e-18
0.00840003
-1.0571e-18
0.00840003
-1.32815e-18
0.00840003
-1.6263e-18
0.00840003
-6.50521e-19
0.00840003
-5.42101e-20
0.00840003
2.1684e-19
0.00840003
4.87891e-19
0.00840003
-4.06576e-19
0.00840003
-1.32815e-18
-2.1684e-18
0.00840003
0.00840003
-2.1684e-19
0.00840003
-3.25261e-19
0.00840003
4.87891e-19
0.00840003
1.89735e-19
0.00840003
-2.98156e-19
0.00840003
-4.06576e-19
0.00840003
-1.0571e-18
0.00840003
-1.49078e-18
0.00840003
-2.60209e-18
0.00840003
-3.55076e-18
0.00840003
-3.14419e-18
0.00840003
-1.0571e-18
0.00840003
2.98156e-19
0.00840003
1.95156e-18
0.00840003
2.92735e-18
0.00840003
2.6563e-18
0.00840003
3.2255e-18
0.00840003
3.14419e-18
0.00840003
2.22261e-18
0.00840003
1.65341e-18
0.00840003
7.86047e-19
0.00840003
-8.67362e-19
0.00840003
-2.00577e-18
0.00840003
-1.6263e-18
-1.35525e-19
0.00840003
0.00840003
-5.42101e-20
0.00840003
4.06576e-19
0.00840003
-5.42101e-20
0.00840003
-7.04731e-19
0.00840003
-1.5992e-18
0.00840003
-2.08709e-18
0.00840003
-1.65341e-18
0.00840003
-2.24972e-18
0.00840003
-1.54499e-18
0.00840003
6.77626e-19
0.00840003
6.23416e-19
0.00840003
1.89735e-19
0.00840003
1.6263e-19
0.00840003
-1.35525e-19
0.00840003
5.69206e-19
0.00840003
1.89735e-18
0.00840003
1.19262e-18
0.00840003
1.43657e-18
0.00840003
1.38236e-18
0.00840003
4.60786e-19
0.00840003
-9.21572e-19
0.00840003
-1.21973e-18
0.00840003
-4.87891e-19
0.00840003
-1.89735e-19
-4.87891e-19
0.00840003
0.00840003
2.71051e-20
0.00840003
-5.69206e-19
0.00840003
-1.30104e-18
0.00840003
-2.43945e-18
0.00840003
-2.05998e-18
0.00840003
-1.35525e-18
0.00840003
-1.46367e-18
0.00840003
-2.71051e-20
0.00840003
4.87891e-19
0.00840003
-5.42101e-19
0.00840003
-2.71051e-20
0.00840003
-7.58942e-19
0.00840003
-9.21572e-19
0.00840003
-8.94467e-19
0.00840003
-1.21973e-18
0.00840003
-1.89735e-18
0.00840003
-1.24683e-18
0.00840003
-1.32815e-18
0.00840003
-1.97867e-18
0.00840003
-1.38236e-18
0.00840003
-4.33681e-19
0.00840003
1.02999e-18
0.00840003
2.1413e-18
0.00840003
3.03577e-18
3.60497e-18
0.00840003
0.00840003
1.89735e-19
0.00840003
4.60786e-19
0.00840003
-2.71051e-20
0.00840003
3.52366e-19
0.00840003
-2.98156e-19
0.00840003
-1.27394e-18
0.00840003
-1.13841e-18
0.00840003
-6.23416e-19
0.00840003
2.71051e-20
0.00840003
-4.33681e-19
0.00840003
-1.38236e-18
0.00840003
-1.0571e-18
0.00840003
-1.76183e-18
0.00840003
-1.21973e-18
0.00840003
-1.54499e-18
0.00840003
-9.75782e-19
0.00840003
-6.77626e-19
0.00840003
-4.06576e-19
0.00840003
1.46367e-18
0.00840003
2.08709e-18
0.00840003
1.87025e-18
0.00840003
1.49078e-18
0.00840003
1.0842e-18
0.00840003
6.50521e-19
-2.71051e-19
0.00840003
0.00840003
2.1684e-19
0.00840003
-1.35525e-19
0.00840003
1.35525e-19
0.00840003
6.23416e-19
0.00840003
4.87891e-19
0.00840003
1.43657e-18
0.00840003
1.97867e-18
0.00840003
1.46367e-18
0.00840003
1.73472e-18
0.00840003
2.03288e-18
0.00840003
2.38524e-18
0.00840003
1.65341e-18
0.00840003
1.92446e-18
0.00840003
8.67362e-19
0.00840003
9.75782e-19
0.00840003
1.55457e-34
0.00840003
-4.87891e-19
0.00840003
-9.3274e-35
0.00840003
-6.77626e-19
0.00840003
-1.19262e-18
0.00840003
-1.35525e-18
0.00840003
-1.46367e-18
0.00840003
-1.11131e-18
0.00840003
-1.78893e-18
-1.81604e-18
0.00840003
0.00840003
-1.0842e-19
0.00840003
5.69206e-19
0.00840003
7.04731e-19
0.00840003
1.43657e-18
0.00840003
3.30682e-18
0.00840003
3.46945e-18
0.00840003
3.11708e-18
0.00840003
2.6563e-18
0.00840003
2.24972e-18
0.00840003
1.65341e-18
0.00840003
1.40946e-18
0.00840003
1.84314e-18
0.00840003
4.60786e-19
0.00840003
-1.6263e-19
0.00840003
-2.98156e-19
0.00840003
8.40257e-19
0.00840003
1.40946e-18
0.00840003
1.87025e-18
0.00840003
8.67362e-19
0.00840003
-6.77626e-19
0.00840003
-3.79471e-19
0.00840003
-2.71051e-19
0.00840003
-7.31836e-19
0.00840003
-5.96311e-19
-1.5992e-18
0.00840003
0.00840003
4.06576e-19
0.00840003
5.14996e-19
0.00840003
1.32815e-18
0.00840003
2.84603e-18
0.00840003
3.38813e-18
0.00840003
3.95734e-18
0.00840003
4.06576e-18
0.00840003
3.93023e-18
0.00840003
1.49078e-18
0.00840003
9.75782e-19
0.00840003
1.02999e-18
0.00840003
2.43945e-19
0.00840003
1.02999e-18
0.00840003
1.6263e-18
0.00840003
1.78893e-18
0.00840003
2.00577e-18
0.00840003
2.92735e-18
0.00840003
2.73761e-18
0.00840003
3.41524e-18
0.00840003
4.68917e-18
0.00840003
3.7676e-18
0.00840003
3.06287e-18
0.00840003
1.24683e-18
0.00840003
-5.42101e-19
-5.42101e-19
0.00840003
0.00840003
-5.42101e-19
0.00840003
2.71051e-20
0.00840003
1.02999e-18
0.00840003
1.21973e-18
0.00840003
1.57209e-18
0.00840003
1.49078e-18
0.00840003
1.49078e-18
0.00840003
1.97867e-18
0.00840003
3.14419e-18
0.00840003
2.81893e-18
0.00840003
2.87314e-18
0.00840003
2.6834e-18
0.00840003
1.97867e-18
0.00840003
2.08709e-18
0.00840003
1.84314e-18
0.00840003
3.08998e-18
0.00840003
2.84603e-18
0.00840003
2.6563e-18
0.00840003
2.98156e-18
0.00840003
2.49366e-18
0.00840003
2.54788e-18
0.00840003
2.38524e-18
0.00840003
3.46945e-18
0.00840003
3.65918e-18
2.24972e-18
0.00840003
0.00840003
4.60786e-19
0.00840003
5.42101e-20
0.00840003
3.49778e-35
0.00840003
-4.87891e-19
0.00840003
0
0.00840003
8.13152e-20
0.00840003
1.0842e-19
0.00840003
-1.0842e-19
0.00840003
1.78893e-18
0.00840003
2.92735e-18
0.00840003
2.79182e-18
0.00840003
3.41524e-18
0.00840003
4.17418e-18
0.00840003
3.44234e-18
0.00840003
3.27971e-18
0.00840003
1.5992e-18
0.00840003
1.32815e-18
0.00840003
1.35525e-18
0.00840003
1.43657e-18
0.00840003
2.24972e-18
0.00840003
2.90024e-18
0.00840003
3.41524e-18
0.00840003
3.25261e-18
0.00840003
3.52366e-18
4.14707e-18
0.00840003
0.00840003
4.87891e-19
0.00840003
1.89735e-19
0.00840003
2.1684e-19
0.00840003
7.58942e-19
0.00840003
4.06576e-19
0.00840003
7.58942e-19
0.00840003
1.30104e-18
0.00840003
1.97867e-18
0.00840003
1.32815e-18
0.00840003
1.81604e-18
0.00840003
2.6834e-18
0.00840003
3.00866e-18
0.00840003
2.98156e-18
0.00840003
3.11708e-18
0.00840003
2.08709e-18
0.00840003
1.24683e-18
0.00840003
-1.89735e-19
0.00840003
-5.42101e-19
0.00840003
-8.94467e-19
0.00840003
-1.81604e-18
0.00840003
-1.68051e-18
0.00840003
-1.16552e-18
0.00840003
-1.35525e-18
0.00840003
-9.75782e-19
-8.13152e-20
0.00840003
0.00840003
-5.96311e-19
0.00840003
-4.06576e-19
0.00840003
-4.33681e-19
0.00840003
4.06576e-19
0.00840003
4.60786e-19
0.00840003
1.21973e-18
0.00840003
1.6263e-18
0.00840003
1.24683e-18
0.00840003
1.57209e-18
0.00840003
1.5992e-18
0.00840003
1.65341e-18
0.00840003
1.51788e-18
0.00840003
1.78893e-18
0.00840003
1.68051e-18
0.00840003
2.22261e-18
0.00840003
2.00577e-18
0.00840003
1.16552e-18
0.00840003
2.71051e-20
0.00840003
-2.00577e-18
0.00840003
-2.43945e-18
0.00840003
-2.76472e-18
0.00840003
-2.54788e-18
0.00840003
-1.16552e-18
0.00840003
-2.71051e-20
8.13152e-20
0.00840003
0.00840003
0.00840003
0.00840003
0.00840003
0.00840003
0.00840003
0.00840003
0.00840003
0.00840003
0.00840003
0.00840003
0.00840003
0.00840003
0.00840003
0.00840003
0.00840003
0.00840003
0.00840003
0.00840003
0.00840003
0.00840003
0.00840003
0.00840003
0.00840003
0.00840003
0.00673911
0.00775491
0.0042473
0.00278058
0.00324262
0.00138273
0.00284377
0.000783018
0.00276423
0.000460255
0.00292278
0.00026631
0.00330619
0.00013274
0.00390859
2.91005e-05
0.00471927
-7.53172e-05
0.00562673
-0.00014956
0.00650147
-0.000179742
0.00723271
-0.000168705
0.00775736
-0.000147698
0.00808024
-0.000110978
0.0082546
-7.36379e-05
0.00833775
-4.51311e-05
0.00837155
-2.6606e-05
0.00838195
-1.51049e-05
0.00838473
-7.59953e-06
0.00838695
-3.10967e-06
0.00839002
-1.03164e-06
0.00839318
-3.35734e-07
0.00839572
-7.93959e-08
0.0083975
1.8924e-08
0.00839864
4.24448e-08
0.00839931
3.43724e-08
0.00839967
2.23397e-08
0.00839986
1.29585e-08
0.00839995
6.98634e-09
0.0084
3.5759e-09
0.00840001
1.75089e-09
0.00840002
8.26224e-10
0.00840003
3.77578e-10
0.00840003
1.68028e-10
0.00840003
7.30544e-11
0.00840003
3.10489e-11
0.00840003
1.29275e-11
0.00840003
5.2792e-12
0.00840003
2.11568e-12
0.00840003
8.33351e-13
0.00840003
3.22556e-13
0.00840003