/*--------------------------------*- C++ -*----------------------------------*\
| =========                 |                                                 |
| \\      /  F ield         | OpenFOAM: The Open Source CFD Toolbox           |
|  \\    /   O peration     | Version:  v2006                                 |
|   \\  /    A nd           | Website:  www.openfoam.com                      |
|    \\/     M anipulation  |                                                 |
\*---------------------------------------------------------------------------*/
FoamFile
{
    version     2.0;
    format      ascii;
    class       surfaceScalarField;
    location    "0.1";
    object      phi;
}
// * * * * * * * * * * * * * * * * * * * * * * * * * * * * * * * * * * * * * //

dimensions      [1 0 -1 0 0 0 0];
oriented        oriented;


internalField   nonuniform List<scalar> 
10325
(
0.00840003
8.99888e-18
0.00840003
5.48877e-17
0.00840003
1.93882e-16
0.00840003
6.45669e-16
0.00840003
2.20497e-15
0.00840003
7.79853e-15
0.00840003
2.79557e-14
0.00840003
1.0049e-13
0.00840002
3.64722e-13
0.00840001
1.31944e-12
0.00839997
4.80081e-12
0.00839987
1.74153e-11
0.0083996
6.33583e-11
0.00839892
2.30774e-10
0.0083971
8.38054e-10
0.00839225
3.04959e-09
0.00837927
1.09546e-08
0.00834453
3.96751e-08
0.00825295
1.44696e-07
0.00802383
5.78162e-07
0.00746026
2.81941e-06
0.00592556
1.82991e-05
-0.00268403
0.000210448
-0.00350066
0.000548598
0.000415789
0.00840003
1.86212e-17
0.00840003
1.34278e-16
0.00840003
6.03792e-16
0.00840003
2.34386e-15
0.00840003
8.68188e-15
0.00840003
3.14392e-14
0.00840003
1.13329e-13
0.00840003
4.04947e-13
0.00840002
1.44437e-12
0.00840001
5.11207e-12
0.00839997
1.80629e-11
0.00839987
6.35293e-11
0.00839961
2.23228e-10
0.00839892
7.84486e-10
0.00839711
2.74917e-09
0.00839229
9.65037e-09
0.00837939
3.35633e-08
0.00834492
1.17535e-07
0.0082542
4.15766e-07
0.00802777
1.60088e-06
0.00747162
7.51521e-06
0.005979
4.60657e-05
-0.00245609
0.00050921
-0.00344941
0.00128651
0.000958104
0.00840003
8.3348e-17
0.00840003
6.66459e-16
0.00840003
2.81963e-15
0.00840003
1.02973e-14
0.00840003
3.63041e-14
0.00840003
1.26294e-13
0.00840003
4.37624e-13
0.00840003
1.50272e-12
0.00840002
5.14518e-12
0.00840001
1.74604e-11
0.00839997
5.91233e-11
0.00839987
1.98857e-10
0.00839961
6.68392e-10
0.00839893
2.24019e-09
0.00839715
7.50555e-09
0.00839239
2.51383e-08
0.00837973
8.38986e-08
0.00834596
2.816e-07
0.00825734
9.59408e-07
0.0080371
3.534e-06
0.00749792
1.58011e-05
0.00610341
8.9993e-05
-0.00192387
0.000939698
-0.00333231
0.0023566
0.00170519
0.00840003
4.17093e-16
0.00840003
3.02693e-15
0.00840003
1.19256e-14
0.00840003
4.13254e-14
0.00840003
1.3933e-13
0.00840003
4.64218e-13
0.00840003
1.53962e-12
0.00840003
5.05991e-12
0.00840002
1.65614e-11
0.00840001
5.37022e-11
0.00839997
1.7354e-10
0.00839987
5.56367e-10
0.00839961
1.78031e-09
0.00839895
5.67086e-09
0.00839722
1.80572e-08
0.00839262
5.7479e-08
0.00838045
1.82969e-07
0.00834812
5.87122e-07
0.0082635
1.91883e-06
0.00805397
6.74907e-06
0.00754286
2.85642e-05
0.0063059
0.000150205
-0.00101888
0.0014677
-0.00314308
0.00372411
0.00261442
0.00840003
1.74554e-15
0.00840003
1.19441e-14
0.00840003
4.52001e-14
0.00840003
1.50247e-13
0.00840003
4.83927e-13
0.00840003
1.53882e-12
0.00840003
4.86364e-12
0.00840003
1.52354e-11
0.00840002
4.74797e-11
0.00840001
1.46599e-10
0.00839997
4.50641e-10
0.00839987
1.37326e-09
0.00839963
4.17258e-09
0.008399
1.25959e-08
0.00839736
3.80019e-08
0.00839306
1.14414e-07
0.00838178
3.45732e-07
0.00835194
1.05501e-06
0.00827379
3.30301e-06
0.00807935
1.11043e-05
0.00760486
4.45974e-05
0.00655701
0.000219274
-1.75803e-05
0.00196276
-0.00285574
0.00530982
0.00373853
0.00840003
6.28688e-15
0.00840003
4.1144e-14
0.00840003
1.50855e-13
0.00840003
4.82719e-13
0.00840003
1.48849e-12
0.00840003
4.521e-12
0.00840003
1.36185e-11
0.00840003
4.06377e-11
0.00840002
1.20464e-10
0.00840001
3.53799e-10
0.00839997
1.03329e-09
0.00839988
2.99103e-09
0.00839965
8.62283e-09
0.00839907
2.46729e-08
0.00839758
7.05096e-08
0.00839373
2.00773e-07
0.00838374
5.74545e-07
0.00835759
1.65862e-06
0.008289
4.93623e-06
0.0081153
1.5734e-05
0.00768732
5.95493e-05
0.00681582
0.000278341
0.00130838
0.00221778
-0.0023999
0.00705669
0.00526349
0.00840003
1.89363e-14
0.00840003
1.21839e-13
0.00840003
4.36265e-13
0.00840003
1.34742e-12
0.00840003
3.98109e-12
0.00840003
1.15535e-11
0.00840003
3.31901e-11
0.00840003
9.44361e-11
0.00840002
2.66684e-10
0.00840001
7.46572e-10
0.00839998
2.077e-09
0.00839989
5.73118e-09
0.00839969
1.57378e-08
0.00839917
4.28952e-08
0.00839786
1.1663e-07
0.00839454
3.15657e-07
0.00838604
8.57898e-07
0.00836424
2.34744e-06
0.00830776
6.61358e-06
0.00816507
1.97587e-05
0.00780951
6.88932e-05
0.00710025
0.000296437
0.00309879
0.0020268
-0.00172452
0.00886676
0.00751377
0.00840003
4.96053e-14
0.00840003
3.12433e-13
0.00840003
1.08892e-12
0.00840003
3.25084e-12
0.00840003
9.23695e-12
0.00840003
2.5719e-11
0.00840003
7.07926e-11
0.00840003
1.92981e-10
0.00840002
5.21957e-10
0.00840001
1.4005e-09
0.00839998
3.73473e-09
0.00839991
9.89028e-09
0.00839973
2.60691e-08
0.00839928
6.82842e-08
0.00839815
1.78375e-07
0.00839535
4.63819e-07
0.00838828
1.20919e-06
0.00837054
3.16486e-06
0.00832535
8.48704e-06
0.00821228
2.3868e-05
0.00794043
7.63564e-05
0.00734817
0.000296628
0.00492872
0.00170068
-0.00104575
0.00986049
0.0109287
0.00840003
9.77063e-14
0.00840003
6.13471e-13
0.00840003
2.11641e-12
0.00840003
6.18633e-12
0.00840003
1.71006e-11
0.00840003
4.62049e-11
0.00840003
1.2329e-10
0.00840003
3.25821e-10
0.00840002
8.5441e-10
0.00840001
2.22428e-09
0.00839999
5.75931e-09
0.00839993
1.48276e-08
0.00839978
3.8043e-08
0.0083994
9.71354e-08
0.00839845
2.47598e-07
0.0083961
6.28573e-07
0.00839023
1.59909e-06
0.00837583
4.07233e-06
0.00833988
1.05717e-05
0.00825192
2.84214e-05
0.00804468
8.48309e-05
0.00757587
0.00030169
0.00613777
0.00147943
0.000762556
0.00970951
0.0159781
0.00840003
1.69336e-13
0.00840003
1.03375e-12
0.00840003
3.4637e-12
0.00840003
9.87349e-12
0.00840003
2.66424e-11
0.00840003
7.03544e-11
0.00840003
1.83545e-10
0.00840003
4.74911e-10
0.00840002
1.21891e-09
0.00840002
3.11031e-09
0.0084
7.88449e-09
0.00839995
1.99169e-08
0.00839983
5.00576e-08
0.00839952
1.25697e-07
0.00839875
3.14452e-07
0.00839684
7.88314e-07
0.00839205
1.97212e-06
0.00838037
4.97474e-06
0.00835181
1.26384e-05
0.00828459
3.32346e-05
0.00813166
9.36244e-05
0.00779283
0.000305149
0.00691937
0.00133761
0.00368914
0.00778121
0.0232756
0.00840003
1.23059e-13
0.00840003
7.66518e-13
0.00840003
2.62749e-12
0.00840003
7.66145e-12
0.00840003
2.1149e-11
0.00840003
5.70518e-11
0.00840003
1.51831e-10
0.00840003
3.99799e-10
0.00840003
1.04287e-09
0.00840002
2.69763e-09
0.00840001
6.92547e-09
0.00839998
1.76655e-08
0.0083999
4.48097e-08
0.00839969
1.13176e-07
0.00839919
2.84878e-07
0.00839792
7.15715e-07
0.00839477
1.79693e-06
0.00838705
4.52073e-06
0.00836835
1.14485e-05
0.00832434
2.95279e-05
0.00822511
7.98041e-05
0.00804101
0.000239763
0.00790993
0.000925165
0.00866002
0.00480363
0.0156755
0.0145482
0.00840003
5.56926e-14
0.00840003
3.51705e-13
0.00840003
1.2261e-12
0.00840003
3.64778e-12
0.00840003
1.03074e-11
0.00840003
2.85214e-11
0.00840003
7.79609e-11
0.00840003
2.11072e-10
0.00840003
5.66658e-10
0.00840003
1.51022e-09
0.00840002
3.99803e-09
0.0084
1.05249e-08
0.00839996
2.75508e-08
0.00839984
7.1793e-08
0.00839955
1.85995e-07
0.00839882
4.79871e-07
0.00839705
1.23043e-06
0.00839271
3.14878e-06
0.00838224
8.0287e-06
0.00835735
2.06436e-05
0.00830209
5.39198e-05
0.00820203
0.000150651
0.00822503
0.000495861
0.00980067
0.00219205
0.0100829
0.0128144
0.00840003
1.86946e-14
0.00840003
1.19638e-13
0.00840003
4.23135e-13
0.00840003
1.28095e-12
0.00840003
3.69036e-12
0.00840003
1.04195e-11
0.00840003
2.90716e-11
0.00840003
8.03602e-11
0.00840003
2.20401e-10
0.00840003
6.00445e-10
0.00840003
1.62694e-09
0.00840002
4.3878e-09
0.0084
1.17897e-08
0.00839995
3.15606e-08
0.00839983
8.4208e-08
0.0083995
2.23744e-07
0.00839864
5.92283e-07
0.00839646
1.56021e-06
0.00839084
4.0991e-06
0.00837652
1.07531e-05
0.00834137
2.84623e-05
0.00826507
7.76031e-05
0.00818546
0.000232761
0.00867695
0.000897559
0.00474555
0.0113452
0.00840003
5.00999e-15
0.00840003
3.25802e-14
0.00840003
1.16432e-13
0.00840003
3.56987e-13
0.00840003
1.04305e-12
0.00840003
2.98696e-12
0.00840003
8.44914e-12
0.00840003
2.36671e-11
0.00840003
6.57534e-11
0.00840003
1.81445e-10
0.00840003
4.98102e-10
0.00840003
1.36212e-09
0.00840002
3.71602e-09
0.00840001
1.01213e-08
0.00839998
2.75499e-08
0.00839989
7.49239e-08
0.00839961
2.03727e-07
0.00839884
5.53134e-07
0.00839665
1.50217e-06
0.00839066
4.07299e-06
0.00837453
1.11005e-05
0.0083361
3.05038e-05
0.00826487
8.76165e-05
0.00840803
0.000284211
0.00134153
0.0106748
0.00840003
1.09225e-15
0.00840003
7.47614e-15
0.00840003
2.71265e-14
0.00840003
8.41826e-14
0.00840003
2.48744e-13
0.00840003
7.19776e-13
0.00840003
2.05512e-12
0.00840003
5.80416e-12
0.00840003
1.62387e-11
0.00840003
4.50706e-11
0.00840003
1.24289e-10
0.00840003
3.41098e-10
0.00840003
9.33088e-10
0.00840003
2.54838e-09
0.00840003
6.95736e-09
0.00840002
1.9013e-08
0.00839999
5.20395e-08
0.00839989
1.42822e-07
0.00839959
3.9306e-07
0.00839858
1.0864e-06
0.00839536
3.01707e-06
0.00838541
8.45587e-06
0.00836243
2.41018e-05
0.00833332
7.23808e-05
0.000266823
0.00897204
0.00840003
1.89383e-16
0.00840003
1.435e-15
0.00840003
5.40198e-15
0.00840003
1.70854e-14
0.00840003
5.1167e-14
0.00840003
1.49714e-13
0.00840003
4.31496e-13
0.00840003
1.22824e-12
0.00840003
3.45781e-12
0.00840003
9.64013e-12
0.00840003
2.6652e-11
0.00840003
7.3177e-11
0.00840003
1.99836e-10
0.00840003
5.4363e-10
0.00840003
1.47526e-09
0.00840003
3.99971e-09
0.00840003
1.08451e-08
0.00840004
2.94572e-08
0.00840006
8.02111e-08
0.0084001
2.19486e-07
0.00840018
6.03929e-07
0.00840039
1.67769e-06
0.00840107
4.70853e-06
0.00840749
1.35119e-05
4.06926e-05
0.00848565
0.00840003
2.84061e-17
0.00840003
2.2321e-16
0.00840003
9.23036e-16
0.00840003
3.06257e-15
0.00840003
9.40334e-15
0.00840003
2.78653e-14
0.00840003
8.09876e-14
0.00840003
2.31849e-13
0.00840003
6.55297e-13
0.00840003
1.83097e-12
0.00840003
5.06387e-12
0.00840003
1.3881e-11
0.00840003
3.7761e-11
0.00840003
1.02093e-10
0.00840003
2.7467e-10
0.00840003
7.36438e-10
0.00840003
1.96977e-09
0.00840004
5.26288e-09
0.00840005
1.40586e-08
0.00840009
3.75903e-08
0.00840021
1.00739e-07
0.00840055
2.70829e-07
0.00840155
7.32302e-07
0.00840482
1.98989e-06
5.46331e-06
0.00841719
0.00840003
4.2826e-18
0.00840003
2.85958e-17
0.00840003
1.24222e-16
0.00840003
4.45444e-16
0.00840003
1.47725e-15
0.00840003
4.56433e-15
0.00840003
1.35436e-14
0.00840003
3.92281e-14
0.00840003
1.11692e-13
0.00840003
3.13597e-13
0.00840003
8.6965e-13
0.00840003
2.38518e-12
0.00840003
6.47686e-12
0.00840003
1.74345e-11
0.00840003
4.65684e-11
0.00840003
1.23578e-10
0.00840003
3.26092e-10
0.00840003
8.56534e-10
0.00840004
2.24101e-09
0.00840005
5.84477e-09
0.00840007
1.52043e-08
0.00840015
3.94603e-08
0.00840037
1.02228e-07
0.00840103
2.64046e-07
6.79274e-07
0.00840299
0.00840003
-1.27394e-18
0.00840003
2.71051e-20
0.00840003
1.18178e-17
0.00840003
5.22585e-17
0.00840003
1.86374e-16
0.00840003
6.39652e-16
0.00840003
2.02795e-15
0.00840003
6.07272e-15
0.00840003
1.75247e-14
0.00840003
4.95208e-14
0.00840003
1.37661e-13
0.00840003
3.77594e-13
0.00840003
1.02329e-12
0.00840003
2.74298e-12
0.00840003
7.27983e-12
0.00840003
1.91448e-11
0.00840003
4.99365e-11
0.00840003
1.29251e-10
0.00840003
3.3226e-10
0.00840003
8.48189e-10
0.00840004
2.15183e-09
0.00840005
5.41939e-09
0.00840009
1.35552e-08
0.00840018
3.35695e-08
8.22064e-08
0.00840044
0.00840003
1.46367e-18
0.00840003
1.49078e-18
0.00840003
2.1413e-18
0.00840003
5.47522e-18
0.00840003
2.09793e-17
0.00840003
6.93076e-17
0.00840003
2.44569e-16
0.00840003
7.91847e-16
0.00840003
2.43935e-15
0.00840003
7.08133e-15
0.00840003
1.99596e-14
0.00840003
5.50655e-14
0.00840003
1.49598e-13
0.00840003
4.00876e-13
0.00840003
1.06118e-12
0.00840003
2.77667e-12
0.00840003
7.18795e-12
0.00840003
1.84135e-11
0.00840003
4.67115e-11
0.00840003
1.17314e-10
0.00840003
2.91821e-10
0.00840003
7.18231e-10
0.00840004
1.74897e-09
0.00840005
4.20393e-09
9.96056e-09
0.00840008
0.00840003
-8.67362e-19
0.00840003
-5.42101e-20
0.00840003
2.98156e-19
0.00840003
4.60786e-19
0.00840003
2.38524e-18
0.00840003
8.42967e-18
0.00840003
2.45843e-17
0.00840003
8.58959e-17
0.00840003
2.77962e-16
0.00840003
8.92488e-16
0.00840003
2.64965e-15
0.00840003
7.49449e-15
0.00840003
2.05405e-14
0.00840003
5.51753e-14
0.00840003
1.45869e-13
0.00840003
3.803e-13
0.00840003
9.78778e-13
0.00840003
2.48785e-12
0.00840003
6.24805e-12
0.00840003
1.55034e-11
0.00840003
3.8007e-11
0.00840003
9.20123e-11
0.00840003
2.198e-10
0.00840003
5.17525e-10
1.1985e-09
0.00840004
0.00840003
0
0.00840003
-1.0842e-18
0.00840003
-1.02999e-18
0.00840003
-2.71051e-20
0.00840003
7.86047e-19
0.00840003
1.0842e-18
0.00840003
3.38813e-18
0.00840003
9.24282e-18
0.00840003
2.86771e-17
0.00840003
8.93925e-17
0.00840003
2.84251e-16
0.00840003
8.79695e-16
0.00840003
2.53964e-15
0.00840003
7.00557e-15
0.00840003
1.87007e-14
0.00840003
4.89185e-14
0.00840003
1.25803e-13
0.00840003
3.18797e-13
0.00840003
7.9639e-13
0.00840003
1.96211e-12
0.00840003
4.76628e-12
0.00840003
1.1415e-11
0.00840003
2.69278e-11
0.00840003
6.25402e-11
1.42757e-10
0.00840003
0.00840003
2.98156e-19
0.00840003
1.32815e-18
0.00840003
1.11131e-18
0.00840003
5.69206e-19
0.00840003
-1.5992e-18
0.00840003
-1.35525e-18
0.00840003
-1.27394e-18
0.00840003
1.0842e-19
0.00840003
2.1684e-18
0.00840003
6.58653e-18
0.00840003
2.38524e-17
0.00840003
7.8442e-17
0.00840003
2.58826e-16
0.00840003
7.78267e-16
0.00840003
2.21099e-15
0.00840003
5.92796e-15
0.00840003
1.53998e-14
0.00840003
3.90867e-14
0.00840003
9.74432e-14
0.00840003
2.39016e-13
0.00840003
5.77114e-13
0.00840003
1.37209e-12
0.00840003
3.21e-12
0.00840003
7.38851e-12
1.67112e-11
0.00840003
0.00840003
-2.71051e-19
0.00840003
4.33681e-19
0.00840003
1.11131e-18
0.00840003
2.71051e-19
0.00840003
9.75782e-19
0.00840003
-8.67362e-19
0.00840003
-1.70762e-18
0.00840003
-2.6563e-18
0.00840003
-2.41235e-18
0.00840003
-5.96311e-19
0.00840003
1.97867e-18
0.00840003
7.94178e-18
0.00840003
2.23346e-17
0.00840003
6.75187e-17
0.00840003
2.02827e-16
0.00840003
6.05581e-16
0.00840003
1.68477e-15
0.00840003
4.43257e-15
0.00840003
1.12114e-14
0.00840003
2.76372e-14
0.00840003
6.6741e-14
0.00840003
1.58317e-13
0.00840003
3.69018e-13
0.00840003
8.45556e-13
1.90331e-12
0.00840003
0.00840003
7.04731e-19
0.00840003
2.71051e-20
0.00840003
-1.0571e-18
0.00840003
-7.86047e-19
0.00840003
-1.35525e-19
0.00840003
7.04731e-19
0.00840003
8.13152e-20
0.00840003
-4.06576e-19
0.00840003
-6.77626e-19
0.00840003
-1.6263e-18
0.00840003
-6.23416e-19
0.00840003
-1.02999e-18
0.00840003
8.13152e-20
0.00840003
4.03865e-18
0.00840003
1.59649e-17
0.00840003
4.76236e-17
0.00840003
1.44145e-16
0.00840003
4.23571e-16
0.00840003
1.16067e-15
0.00840003
2.9979e-15
0.00840003
7.38279e-15
0.00840003
1.7638e-14
0.00840003
4.11797e-14
0.00840003
9.42387e-14
2.11707e-13
0.00840003
0.00840003
-5.96311e-19
0.00840003
-2.43945e-19
0.00840003
2.71051e-20
0.00840003
-2.43945e-19
0.00840003
-7.04731e-19
0.00840003
-4.33681e-19
0.00840003
-8.13152e-20
0.00840003
-1.0842e-19
0.00840003
-1.49078e-18
0.00840003
-1.11131e-18
0.00840003
-1.95156e-18
0.00840003
-2.46656e-18
0.00840003
-2.08709e-18
0.00840003
-1.5992e-18
0.00840003
-5.69206e-19
0.00840003
3.00866e-18
0.00840003
9.78492e-18
0.00840003
3.03035e-17
0.00840003
8.89046e-17
0.00840003
2.58176e-16
0.00840003
6.96627e-16
0.00840003
1.78224e-15
0.00840003
4.28314e-15
0.00840003
9.95981e-15
2.25016e-14
0.00840003
0.00840003
-3.52366e-19
0.00840003
-5.42101e-20
0.00840003
3.52366e-19
0.00840003
7.58942e-19
0.00840003
1.30104e-18
0.00840003
1.78893e-18
0.00840003
2.1684e-18
0.00840003
1.54499e-18
0.00840003
2.33103e-18
0.00840003
1.76183e-18
0.00840003
7.86047e-19
0.00840003
5.14996e-19
0.00840003
5.42101e-19
0.00840003
3.25261e-19
0.00840003
0
0.00840003
6.23416e-19
0.00840003
1.51788e-18
0.00840003
2.43945e-18
0.00840003
8.21283e-18
0.00840003
2.07083e-17
0.00840003
5.31259e-17
0.00840003
1.40513e-16
0.00840003
3.70716e-16
0.00840003
9.4125e-16
2.23251e-15
0.00840003
0.00840003
6.23416e-19
0.00840003
4.33681e-19
0.00840003
3.52366e-19
0.00840003
8.13152e-20
0.00840003
1.00289e-18
0.00840003
2.33103e-18
0.00840003
2.84603e-18
0.00840003
2.30393e-18
0.00840003
2.1413e-18
0.00840003
1.38236e-18
0.00840003
1.11131e-18
0.00840003
1.46367e-18
0.00840003
9.75782e-19
0.00840003
1.11131e-18
0.00840003
2.33103e-18
0.00840003
4.47233e-18
0.00840003
8.18573e-18
0.00840003
1.08691e-17
0.00840003
1.07065e-17
0.00840003
1.02457e-17
0.00840003
1.05168e-17
0.00840003
1.51246e-17
0.00840003
2.95987e-17
0.00840003
6.73561e-17
1.71223e-16
0.00840003
0.00840003
-5.96311e-19
0.00840003
-1.70762e-18
0.00840003
-1.32815e-18
0.00840003
-2.71051e-19
0.00840003
-7.86047e-19
0.00840003
-1.30104e-18
0.00840003
-1.0571e-18
0.00840003
-1.0842e-19
0.00840003
6.50521e-19
0.00840003
1.57209e-18
0.00840003
2.60209e-18
0.00840003
2.1413e-18
0.00840003
2.08709e-18
0.00840003
2.24972e-18
0.00840003
2.57498e-18
0.00840003
1.78893e-18
0.00840003
1.40946e-18
0.00840003
2.60209e-18
0.00840003
4.39102e-18
0.00840003
6.85758e-18
0.00840003
8.61941e-18
0.00840003
9.73071e-18
0.00840003
9.02598e-18
0.00840003
1.14383e-17
1.62901e-17
0.00840003
0.00840003
8.13152e-19
0.00840003
8.40257e-19
0.00840003
5.42101e-19
0.00840003
2.98156e-19
0.00840003
6.77626e-19
0.00840003
5.42101e-19
0.00840003
1.02999e-18
0.00840003
1.54499e-18
0.00840003
7.04731e-19
0.00840003
7.31836e-19
0.00840003
1.30104e-18
0.00840003
1.70762e-18
0.00840003
1.0571e-18
0.00840003
1.49078e-18
0.00840003
1.24683e-18
0.00840003
1.27394e-18
0.00840003
2.71051e-20
0.00840003
-8.13152e-20
0.00840003
4.87891e-19
0.00840003
3.52366e-19
0.00840003
1.27394e-18
0.00840003
2.49366e-18
0.00840003
4.17418e-18
0.00840003
3.38813e-18
2.38524e-18
0.00840003
0.00840003
-1.32815e-18
0.00840003
-1.0571e-18
0.00840003
-5.14996e-19
0.00840003
2.98156e-19
0.00840003
2.71051e-19
0.00840003
-1.0842e-19
0.00840003
-5.69206e-19
0.00840003
-3.79471e-19
0.00840003
-1.0842e-19
0.00840003
2.1684e-19
0.00840003
-8.40257e-19
0.00840003
-1.21973e-18
0.00840003
-1.6263e-19
0.00840003
-9.75782e-19
0.00840003
-5.42101e-19
0.00840003
-1.11131e-18
0.00840003
-2.98156e-19
0.00840003
1.0842e-19
0.00840003
-2.71051e-20
0.00840003
1.68051e-18
0.00840003
3.1984e-18
0.00840003
3.27971e-18
0.00840003
2.98156e-18
0.00840003
2.87314e-18
3.30682e-18
0.00840003
0.00840003
2.43945e-19
0.00840003
7.86047e-19
0.00840003
1.6263e-19
0.00840003
-5.96311e-19
0.00840003
-1.6263e-19
0.00840003
1.6263e-19
0.00840003
-5.69206e-19
0.00840003
-1.0571e-18
0.00840003
-1.19262e-18
0.00840003
-1.46367e-18
0.00840003
-1.43657e-18
0.00840003
-1.70762e-18
0.00840003
-2.41235e-18
0.00840003
-2.19551e-18
0.00840003
-2.54788e-18
0.00840003
-1.68051e-18
0.00840003
-9.21572e-19
0.00840003
-3.79471e-19
0.00840003
2.43945e-19
0.00840003
2.1684e-19
0.00840003
-2.71051e-20
0.00840003
2.43945e-19
0.00840003
5.42101e-20
0.00840003
0
3.52366e-19
0.00840003
0.00840003
1.0842e-18
0.00840003
1.0842e-19
0.00840003
1.0842e-19
0.00840003
-6.77626e-19
0.00840003
-1.32815e-18
0.00840003
-9.75782e-19
0.00840003
-2.71051e-20
0.00840003
1.35525e-19
0.00840003
-1.0571e-18
0.00840003
-2.11419e-18
0.00840003
-2.60209e-18
0.00840003
-2.08709e-18
0.00840003
-1.70762e-18
0.00840003
-1.73472e-18
0.00840003
-2.57498e-18
0.00840003
-2.73761e-18
0.00840003
-2.98156e-18
0.00840003
-2.54788e-18
0.00840003
-1.57209e-18
0.00840003
-1.0842e-18
0.00840003
-7.04731e-19
0.00840003
-2.71051e-19
0.00840003
-1.35525e-19
0.00840003
7.58942e-19
5.14996e-19
0.00840003
0.00840003
5.42101e-20
0.00840003
7.04731e-19
0.00840003
1.89735e-18
0.00840003
3.00866e-18
0.00840003
2.62919e-18
0.00840003
1.54499e-18
0.00840003
5.42101e-19
0.00840003
1.02999e-18
0.00840003
2.1413e-18
0.00840003
2.30393e-18
0.00840003
2.6834e-18
0.00840003
2.41235e-18
0.00840003
1.51788e-18
0.00840003
8.13152e-20
0.00840003
1.0571e-18
0.00840003
2.43945e-18
0.00840003
2.6563e-18
0.00840003
3.14419e-18
0.00840003
3.11708e-18
0.00840003
3.46945e-18
0.00840003
2.81893e-18
0.00840003
2.33103e-18
0.00840003
2.73761e-18
0.00840003
2.79182e-18
3.57787e-18
0.00840003
0.00840003
-1.11131e-18
0.00840003
-1.35525e-19
0.00840003
-1.35525e-19
0.00840003
-2.71051e-20
0.00840003
6.23416e-19
0.00840003
6.23416e-19
0.00840003
1.21973e-18
0.00840003
1.6263e-19
0.00840003
-8.13152e-19
0.00840003
-5.96311e-19
0.00840003
0
0.00840003
6.77626e-19
0.00840003
9.21572e-19
0.00840003
2.03288e-18
0.00840003
1.78893e-18
0.00840003
1.48361e-35
0.00840003
-5.42101e-19
0.00840003
-1.89735e-18
0.00840003
-2.00577e-18
0.00840003
-1.49078e-18
0.00840003
-8.94467e-19
0.00840003
-6.50521e-19
0.00840003
8.13152e-20
0.00840003
1.00289e-18
6.23416e-19
0.00840003
0.00840003
-4.60786e-19
0.00840003
-1.78893e-18
0.00840003
-2.81893e-18
0.00840003
-2.84603e-18
0.00840003
-2.73761e-18
0.00840003
-2.30393e-18
0.00840003
-1.27394e-18
0.00840003
7.86047e-19
0.00840003
2.38524e-18
0.00840003
3.27971e-18
0.00840003
3.46945e-18
0.00840003
2.6563e-18
0.00840003
2.38524e-18
0.00840003
2.19551e-18
0.00840003
1.00289e-18
0.00840003
-6.23416e-19
0.00840003
-1.68051e-18
0.00840003
-2.03288e-18
0.00840003
-2.27682e-18
0.00840003
-3.57787e-18
0.00840003
-4.17418e-18
0.00840003
-4.06576e-18
0.00840003
-3.98444e-18
0.00840003
-5.06865e-18
-5.31259e-18
0.00840003
0.00840003
7.31836e-19
0.00840003
6.77626e-19
0.00840003
2.1684e-19
0.00840003
-1.30104e-18
0.00840003
-1.89735e-18
0.00840003
-2.11419e-18
0.00840003
-1.78893e-18
0.00840003
-1.00289e-18
0.00840003
5.14996e-19
0.00840003
1.84314e-18
0.00840003
1.5992e-18
0.00840003
1.5992e-18
0.00840003
1.65341e-18
0.00840003
1.76183e-18
0.00840003
1.84314e-18
0.00840003
2.1684e-18
0.00840003
1.95156e-18
0.00840003
1.5992e-18
0.00840003
-3.25261e-19
0.00840003
-1.30104e-18
0.00840003
-1.84314e-18
0.00840003
-2.90024e-18
0.00840003
-3.68629e-18
0.00840003
-3.63208e-18
-3.06287e-18
0.00840003
0.00840003
4.60786e-19
0.00840003
7.86047e-19
0.00840003
1.81604e-18
0.00840003
1.32815e-18
0.00840003
1.68051e-18
0.00840003
1.68051e-18
0.00840003
1.46367e-18
0.00840003
1.16552e-18
0.00840003
1.24683e-18
0.00840003
1.6263e-18
0.00840003
1.92446e-18
0.00840003
1.54499e-18
0.00840003
2.41235e-18
0.00840003
2.24972e-18
0.00840003
2.1413e-18
0.00840003
1.97867e-18
0.00840003
2.54788e-18
0.00840003
2.46656e-18
0.00840003
3.03577e-18
0.00840003
2.6834e-18
0.00840003
1.89735e-18
0.00840003
7.58942e-19
0.00840003
-5.14996e-19
0.00840003
-1.92446e-18
-3.11708e-18
0.00840003
0.00840003
4.06576e-19
0.00840003
8.13152e-19
0.00840003
-3.52366e-19
0.00840003
2.98156e-19
0.00840003
5.42101e-19
0.00840003
8.94467e-19
0.00840003
5.14996e-19
0.00840003
-1.6263e-19
0.00840003
0
0.00840003
5.42101e-20
0.00840003
4.60786e-19
0.00840003
1.78893e-18
0.00840003
2.05998e-18
0.00840003
1.95156e-18
0.00840003
1.92446e-18
0.00840003
2.87314e-18
0.00840003
1.68051e-18
0.00840003
1.13841e-18
0.00840003
-4.06576e-19
0.00840003
-9.21572e-19
0.00840003
-1.30104e-18
0.00840003
-1.43657e-18
0.00840003
-2.35814e-18
0.00840003
-1.95156e-18
-1.76183e-18
0.00840003
0.00840003
2.1684e-19
0.00840003
4.06576e-19
0.00840003
4.33681e-19
0.00840003
3.79471e-19
0.00840003
5.42101e-19
0.00840003
1.27394e-18
0.00840003
1.95156e-18
0.00840003
2.43945e-18
0.00840003
2.76472e-18
0.00840003
2.22261e-18
0.00840003
2.73761e-18
0.00840003
2.57498e-18
0.00840003
2.54788e-18
0.00840003
2.98156e-18
0.00840003
4.01155e-18
0.00840003
4.44523e-18
0.00840003
4.25549e-18
0.00840003
2.79182e-18
0.00840003
1.73472e-18
0.00840003
6.23416e-19
0.00840003
2.98156e-19
0.00840003
1.89735e-19
0.00840003
1.00289e-18
0.00840003
1.0842e-18
2.22261e-18
0.00840003
0.00840003
2.71051e-20
0.00840003
-7.58942e-19
0.00840003
-1.57209e-18
0.00840003
-1.13841e-18
0.00840003
-1.81604e-18
0.00840003
-2.43945e-18
0.00840003
-2.90024e-18
0.00840003
-2.05998e-18
0.00840003
-3.49655e-18
0.00840003
-3.63208e-18
0.00840003
-3.84892e-18
0.00840003
-2.92735e-18
0.00840003
-1.78893e-18
0.00840003
-1.35525e-19
0.00840003
2.98156e-19
0.00840003
-5.96311e-19
0.00840003
2.71051e-19
0.00840003
1.70762e-18
0.00840003
3.14419e-18
0.00840003
3.41524e-18
0.00840003
3.63208e-18
0.00840003
3.71339e-18
0.00840003
3.49655e-18
0.00840003
2.62919e-18
1.27394e-18
0.00840003
0.00840003
-1.13841e-18
0.00840003
-7.04731e-19
0.00840003
2.43945e-19
0.00840003
-9.48677e-19
0.00840003
-2.08709e-18
0.00840003
-2.24972e-18
0.00840003
-2.11419e-18
0.00840003
-2.81893e-18
0.00840003
-1.57209e-18
0.00840003
-1.13841e-18
0.00840003
-9.75782e-19
0.00840003
-1.46367e-18
0.00840003
-1.57209e-18
0.00840003
-1.78893e-18
0.00840003
-1.78893e-18
0.00840003
-8.40257e-19
0.00840003
-1.16552e-18
0.00840003
-1.13841e-18
0.00840003
-8.94467e-19
0.00840003
-1.32815e-18
0.00840003
-2.1413e-18
0.00840003
-2.24972e-18
0.00840003
-2.6834e-18
0.00840003
-2.98156e-18
-2.92735e-18
0.00840003
0.00840003
7.86047e-19
0.00840003
5.14996e-19
0.00840003
1.0842e-18
0.00840003
2.33103e-18
0.00840003
2.73761e-18
0.00840003
2.71051e-18
0.00840003
1.92446e-18
0.00840003
7.58942e-19
0.00840003
-2.1684e-19
0.00840003
-6.77626e-19
0.00840003
-7.31836e-19
0.00840003
-1.51788e-18
0.00840003
-2.49366e-18
0.00840003
-1.78893e-18
0.00840003
-1.13841e-18
0.00840003
-1.27394e-18
0.00840003
-5.69206e-19
0.00840003
-6.23416e-19
0.00840003
-6.77626e-19
0.00840003
-3.52366e-19
0.00840003
-1.51788e-18
0.00840003
-1.46367e-18
0.00840003
-7.86047e-19
0.00840003
2.43945e-19
8.40257e-19
0.00840003
0.00840003
-8.67362e-19
0.00840003
-5.14996e-19
0.00840003
-6.50521e-19
0.00840003
4.60786e-19
0.00840003
1.92446e-18
0.00840003
2.03288e-18
0.00840003
1.49078e-18
0.00840003
1.43657e-18
0.00840003
4.06576e-19
0.00840003
-5.42101e-19
0.00840003
-2.30393e-18
0.00840003
-2.1413e-18
0.00840003
-2.33103e-18
0.00840003
-3.14419e-18
0.00840003
-3.11708e-18
0.00840003
-1.97867e-18
0.00840003
-1.5992e-18
0.00840003
-1.11131e-18
0.00840003
-2.43945e-19
0.00840003
1.0842e-18
0.00840003
3.08998e-18
0.00840003
3.06287e-18
0.00840003
1.73472e-18
0.00840003
1.68051e-18
2.19551e-18
0.00840003
0.00840003
7.86047e-19
0.00840003
1.43657e-18
0.00840003
1.57209e-18
0.00840003
5.42101e-19
0.00840003
4.60786e-19
0.00840003
1.0842e-19
0.00840003
1.27394e-18
0.00840003
1.68051e-18
0.00840003
1.40946e-18
0.00840003
1.00289e-18
0.00840003
1.92446e-18
0.00840003
1.24683e-18
0.00840003
2.98156e-19
0.00840003
-2.1684e-19
0.00840003
-1.13841e-18
0.00840003
-1.68051e-18
0.00840003
-1.46367e-18
0.00840003
-3.25261e-19
0.00840003
1.35525e-19
0.00840003
7.31836e-19
0.00840003
9.75782e-19
0.00840003
1.43657e-18
0.00840003
2.33103e-18
0.00840003
2.52077e-18
7.86047e-19
0.00840003
0.00840003
-2.98156e-19
0.00840003
1.6263e-19
0.00840003
2.1684e-19
0.00840003
9.48677e-19
0.00840003
1.65341e-18
0.00840003
1.70762e-18
0.00840003
5.96311e-19
0.00840003
1.6263e-19
0.00840003
3.25261e-19
0.00840003
4.87891e-19
0.00840003
-6.77626e-19
0.00840003
-4.06576e-19
0.00840003
3.52366e-19
0.00840003
-3.52366e-19
0.00840003
-2.1684e-19
0.00840003
1.89735e-19
0.00840003
8.13152e-20
0.00840003
8.13152e-20
0.00840003
1.0842e-19
0.00840003
-2.43945e-19
0.00840003
5.42101e-19
0.00840003
9.75782e-19
0.00840003
2.19551e-18
0.00840003
2.54788e-18
2.98156e-18
0.00840003
0.00840003
-1.24683e-18
0.00840003
-2.6834e-18
0.00840003
-2.11419e-18
0.00840003
-1.70762e-18
0.00840003
-3.25261e-18
0.00840003
-3.98444e-18
0.00840003
-3.7405e-18
0.00840003
-3.55076e-18
0.00840003
-3.2255e-18
0.00840003
-2.33103e-18
0.00840003
-1.38236e-18
0.00840003
-5.96311e-19
0.00840003
-6.23416e-19
0.00840003
-8.94467e-19
0.00840003
-7.04731e-19
0.00840003
-1.78893e-18
0.00840003
-2.11419e-18
0.00840003
-2.90024e-18
0.00840003
-2.87314e-18
0.00840003
-3.60497e-18
0.00840003
-4.55365e-18
0.00840003
-4.09286e-18
0.00840003
-4.3097e-18
0.00840003
-4.09286e-18
-3.38813e-18
0.00840003
0.00840003
1.02999e-18
0.00840003
8.94467e-19
0.00840003
2.98156e-19
0.00840003
-1.24683e-18
0.00840003
-2.57498e-18
0.00840003
-2.76472e-18
0.00840003
-2.35814e-18
0.00840003
-2.00577e-18
0.00840003
-1.35525e-18
0.00840003
-1.00289e-18
0.00840003
-1.00289e-18
0.00840003
-1.95156e-18
0.00840003
-2.38524e-18
0.00840003
-1.38236e-18
0.00840003
-1.13841e-18
0.00840003
-4.33681e-19
0.00840003
1.89735e-19
0.00840003
1.35525e-19
0.00840003
-8.67362e-19
0.00840003
-9.75782e-19
0.00840003
-6.77626e-19
0.00840003
-7.31836e-19
0.00840003
-1.35525e-19
0.00840003
8.13152e-20
8.94467e-19
0.00840003
0.00840003
-1.35525e-19
0.00840003
1.89735e-19
0.00840003
-1.13841e-18
0.00840003
-1.57209e-18
0.00840003
-1.5992e-18
0.00840003
-1.57209e-18
0.00840003
-2.6563e-18
0.00840003
-2.52077e-18
0.00840003
-1.81604e-18
0.00840003
-2.49366e-18
0.00840003
-2.05998e-18
0.00840003
-2.22261e-18
0.00840003
-2.57498e-18
0.00840003
-3.46945e-18
0.00840003
-3.71339e-18
0.00840003
-2.76472e-18
0.00840003
-1.51788e-18
0.00840003
-2.43945e-19
0.00840003
-2.98156e-19
0.00840003
-5.42101e-20
0.00840003
-1.0842e-19
0.00840003
-2.98156e-19
0.00840003
-5.42101e-20
0.00840003
5.42101e-20
-6.50521e-19
0.00840003
0.00840003
0.00840003
0.00840003
0.00840003
0.00840003
0.00840003
0.00840003
0.00840003
0.00840003
0.00840003
0.00840003
0.00840003
0.00840003
0.00840003
0.00840003
0.00840003
0.00840003
0.00840003
0.00840003
0.00840003
0.00840003
0.00840003
0.00840003
0.00840003
0.00840003
0.00673562
0.00775506
0.00424523
0.00278079
0.00324113
0.0013825
0.00284268
0.000782587
0.00276375
0.000459845
0.00292287
0.000265899
0.00330678
0.000132365
0.00390906
2.87942e-05
0.00471938
-7.56509e-05
0.00562657
-0.000149662
0.00650092
-0.0001796
0.00723176
-0.000168542
0.00775637
-0.00014755
0.00807944
-0.000110926
0.00825404
-7.36778e-05
0.00833743
-4.52017e-05
0.0083714
-2.667e-05
0.00838191
-1.51507e-05
0.00838473
-7.6343e-06
0.00838695
-3.13529e-06
0.00839001
-1.04754e-06
0.00839316
-3.44177e-07
0.00839569
-8.32688e-08
0.00839748
1.69983e-08
0.00839863
4.18739e-08
0.0083993
3.42804e-08
0.00839967
2.23988e-08
0.00839986
1.30364e-08
0.00839995
7.04519e-09
0.00839999
3.61553e-09
0.00840001
1.7754e-09