/*--------------------------------*- C++ -*----------------------------------*\
  =========                 |
  \\      /  F ield         | OpenFOAM: The Open Source CFD Toolbox
   \\    /   O peration     | Website:  https://openfoam.org
    \\  /    A nd           | Version:  7
     \\/     M anipulation  |
\*---------------------------------------------------------------------------*/
FoamFile
{
    version     2.0;
    format      ascii;
    class       volVectorField;
    location    "0.1";
    object      U;
}
// * * * * * * * * * * * * * * * * * * * * * * * * * * * * * * * * * * * * * //

dimensions      [0 1 -1 0 0 0 0];

internalField   nonuniform List<vector> 
5250
(
(3 -1.69884e-16 0)
(3 6.66562e-16 0)
(3 4.45253e-15 0)
(3 2.80969e-14 0)
(3 1.37518e-13 0)
(3 6.073e-13 0)
(3 2.5304e-12 0)
(3 1.00816e-11 0)
(3 3.93517e-11 0)
(3 1.49932e-10 0)
(2.99999 5.66788e-10 0)
(2.99997 2.11791e-09 0)
(2.99993 7.89145e-09 0)
(2.99983 2.93264e-08 0)
(2.99956 1.08318e-07 0)
(2.99886 3.99343e-07 0)
(2.99701 1.44681e-06 0)
(2.99209 5.24173e-06 0)
(2.97838 1.88397e-05 0)
(2.93572 7.19018e-05 0)
(2.78049 0.000310172 0)
(2.04608 0.00167902 0)
(0.675161 0.0080954 0)
(-0.97764 0.0133585 0)
(0.254175 0.0106661 0)
(3 2.47189e-15 0)
(3 1.8963e-14 0)
(3 7.96622e-14 0)
(3 3.1031e-13 0)
(3 1.18192e-12 0)
(3 4.43974e-12 0)
(3 1.65352e-11 0)
(3 6.08143e-11 0)
(3 2.22326e-10 0)
(3 8.0486e-10 0)
(2.99999 2.90299e-09 0)
(2.99997 1.04205e-08 0)
(2.99993 3.73442e-08 0)
(2.99983 1.33893e-07 0)
(2.99956 4.78059e-07 0)
(2.99886 1.70708e-06 0)
(2.99702 6.01203e-06 0)
(2.99211 2.11822e-05 0)
(2.97844 7.42379e-05 0)
(2.93597 0.00027517 0)
(2.78194 0.00115259 0)
(2.05647 0.00599633 0)
(0.695234 0.0284062 0)
(-0.972402 0.0459248 0)
(0.253329 0.0362927 0)
(3 1.54421e-14 0)
(3 1.043e-13 0)
(3 4.17498e-13 0)
(3 1.52159e-12 0)
(3 5.45832e-12 0)
(3 1.94162e-11 0)
(3 6.87883e-11 0)
(3 2.41634e-10 0)
(3 8.44965e-10 0)
(3 2.93071e-09 0)
(2.99999 1.01288e-08 0)
(2.99997 3.48208e-08 0)
(2.99993 1.19518e-07 0)
(2.99983 4.09704e-07 0)
(2.99956 1.40178e-06 0)
(2.99886 4.79266e-06 0)
(2.99703 1.62507e-05 0)
(2.99215 5.50727e-05 0)
(2.9786 0.000186493 0)
(2.93667 0.000663354 0)
(2.78563 0.00266196 0)
(2.08197 0.013019 0)
(0.741165 0.0597194 0)
(-0.958052 0.0942082 0)
(0.250578 0.0723975 0)
(3 7.33451e-14 0)
(3 4.89063e-13 0)
(3 1.89549e-12 0)
(3 6.62824e-12 0)
(3 2.27006e-11 0)
(3 7.7058e-11 0)
(3 2.60376e-10 0)
(3 8.72858e-10 0)
(3 2.91219e-09 0)
(3 9.63746e-09 0)
(2.99999 3.17651e-08 0)
(2.99997 1.0402e-07 0)
(2.99993 3.39864e-07 0)
(2.99983 1.10683e-06 0)
(2.99956 3.60073e-06 0)
(2.99887 1.1704e-05 0)
(2.99706 3.79059e-05 0)
(2.99225 0.000122941 0)
(2.97896 0.00040017 0)
(2.93815 0.0013617 0)
(2.79295 0.00519743 0)
(2.12965 0.0236686 0)
(0.81824 0.104175 0)
(-0.927086 0.162553 0)
(0.242679 0.120417 0)
(3 2.92629e-13 0)
(3 1.92608e-12 0)
(3 7.28148e-12 0)
(3 2.46089e-11 0)
(3 8.10565e-11 0)
(3 2.6411e-10 0)
(3 8.55195e-10 0)
(3 2.74514e-09 0)
(3 8.75872e-09 0)
(3 2.76945e-08 0)
(2.99999 8.70997e-08 0)
(2.99998 2.71724e-07 0)
(2.99994 8.44585e-07 0)
(2.99983 2.61062e-06 0)
(2.99957 8.05715e-06 0)
(2.99889 2.48162e-05 0)
(2.99712 7.64332e-05 0)
(2.99246 0.000236337 0)
(2.97965 0.000738167 0)
(2.94087 0.00240574 0)
(2.80531 0.00875032 0)
(2.20421 0.0373389 0)
(0.91779 0.158673 0)
(-0.862189 0.250307 0)
(0.223683 0.180353 0)
(3 1.13674e-12 0)
(3 7.34662e-12 0)
(3 2.6929e-11 0)
(3 8.71529e-11 0)
(3 2.73131e-10 0)
(3 8.45069e-10 0)
(3 2.5951e-09 0)
(3 7.90117e-09 0)
(3 2.38994e-08 0)
(3 7.1667e-08 0)
(2.99999 2.13661e-07 0)
(2.99998 6.31768e-07 0)
(2.99994 1.85993e-06 0)
(2.99984 5.43963e-06 0)
(2.99958 1.58804e-05 0)
(2.99893 4.62141e-05 0)
(2.99724 0.000134807 0)
(2.99281 0.000395139 0)
(2.9808 0.0011778 0)
(2.94512 0.00366404 0)
(2.82352 0.0127144 0)
(2.3067 0.0515204 0)
(1.03443 0.214622 0)
(-0.745561 0.35955 0)
(0.187236 0.262162 0)
(3 3.53655e-12 0)
(3 2.25569e-11 0)
(3 8.08032e-11 0)
(3 2.52923e-10 0)
(3 7.61793e-10 0)
(3 2.25866e-09 0)
(3 6.63201e-09 0)
(3 1.92897e-08 0)
(3 5.56645e-08 0)
(3 1.59212e-07 0)
(2.99999 4.52287e-07 0)
(2.99998 1.27423e-06 0)
(2.99994 3.5706e-06 0)
(2.99985 9.93339e-06 0)
(2.9996 2.75539e-05 0)
(2.99899 7.60998e-05 0)
(2.99742 0.000210678 0)
(2.99333 0.000585566 0)
(2.98241 0.00165877 0)
(2.95083 0.00488675 0)
(2.84702 0.0159829 0)
(2.43035 0.0607857 0)
(1.19429 0.249197 0)
(-0.56041 0.490386 0)
(0.131029 0.377243 0)
(3 1.03574e-11 0)
(3 6.51129e-11 0)
(3 2.27332e-10 0)
(3 6.84315e-10 0)
(3 1.96747e-09 0)
(3 5.553e-09 0)
(3 1.55056e-08 0)
(3 4.29027e-08 0)
(3 1.178e-07 0)
(3 3.20947e-07 0)
(2.99999 8.68934e-07 0)
(2.99998 2.33629e-06 0)
(2.99994 6.25008e-06 0)
(2.99986 1.6616e-05 0)
(2.99964 4.40334e-05 0)
(2.99908 0.000116162 0)
(2.99766 0.000306862 0)
(2.99402 0.000812379 0)
(2.98442 0.00218722 0)
(2.95738 0.00607905 0)
(2.87199 0.0184905 0)
(2.54894 0.0644828 0)
(1.42693 0.253695 0)
(-0.313532 0.631371 0)
(0.0647393 0.561488 0)
(3 2.2254e-11 0)
(3 1.3874e-10 0)
(3 4.77067e-10 0)
(3 1.40198e-09 0)
(3 3.91405e-09 0)
(3 1.06999e-08 0)
(3 2.8901e-08 0)
(3 7.73172e-08 0)
(3 2.05209e-07 0)
(3 5.40603e-07 0)
(2.99999 1.41582e-06 0)
(2.99998 3.68582e-06 0)
(2.99995 9.5548e-06 0)
(2.99988 2.46411e-05 0)
(2.99969 6.33741e-05 0)
(2.99921 0.000162281 0)
(2.998 0.000415716 0)
(2.9949 0.00106461 0)
(2.98683 0.0027613 0)
(2.96465 0.00732862 0)
(2.89709 0.0208992 0)
(2.65467 0.067113 0)
(1.73155 0.24631 0)
(0.0411877 0.768776 0)
(0.0282885 0.786108 0)
(3 4.38415e-11 0)
(3 2.71455e-10 0)
(3 9.21055e-10 0)
(3 2.64364e-09 0)
(3 7.16554e-09 0)
(3 1.89835e-08 0)
(3 4.96787e-08 0)
(3 1.28877e-07 0)
(3 3.31797e-07 0)
(3 8.4888e-07 0)
(2.99999 2.15934e-06 0)
(2.99998 5.46939e-06 0)
(2.99996 1.37976e-05 0)
(2.9999 3.47227e-05 0)
(2.99975 8.71498e-05 0)
(2.99937 0.000218591 0)
(2.99842 0.000547714 0)
(2.99598 0.00137653 0)
(2.98965 0.00348117 0)
(2.97263 0.00898708 0)
(2.92265 0.0243729 0)
(2.74986 0.0730405 0)
(2.11342 0.249345 0)
(0.479983 0.890952 0)
(0.108402 1.16526 0)
(3 4.85696e-11 0)
(3 3.00731e-10 0)
(3 1.02078e-09 0)
(3 2.93227e-09 0)
(3 7.95608e-09 0)
(3 2.10985e-08 0)
(3 5.52493e-08 0)
(3 1.43356e-07 0)
(3 3.68879e-07 0)
(3 9.42556e-07 0)
(3 2.39208e-06 0)
(2.99999 6.03996e-06 0)
(2.99998 1.51727e-05 0)
(2.99994 3.80053e-05 0)
(2.99984 9.48715e-05 0)
(2.99959 0.000236741 0)
(2.99896 0.000589751 0)
(2.99735 0.00147421 0)
(2.99318 0.00369618 0)
(2.98211 0.00941988 0)
(2.95078 0.0248171 0)
(2.84888 0.0705282 0)
(2.50071 0.2301 0)
(1.25821 0.827182 0)
(0.601683 1.39445 0)
(3 2.76019e-11 0)
(3 1.71845e-10 0)
(3 5.89657e-10 0)
(3 1.72712e-09 0)
(3 4.80196e-09 0)
(3 1.30679e-08 0)
(3 3.51166e-08 0)
(3 9.34257e-08 0)
(3 2.46345e-07 0)
(3 6.44384e-07 0)
(3 1.67342e-06 0)
(3 4.31845e-06 0)
(2.99999 1.10813e-05 0)
(2.99997 2.83015e-05 0)
(2.99992 7.19685e-05 0)
(2.99979 0.000182425 0)
(2.99945 0.000460989 0)
(2.99857 0.00116383 0)
(2.99628 0.00293853 0)
(2.99025 0.00747606 0)
(2.97365 0.0193935 0)
(2.92379 0.0530568 0)
(2.75481 0.163778 0)
(2.07849 0.568578 0)
(1.27595 1.37705 0)
(3 1.08645e-11 0)
(3 6.80835e-11 0)
(3 2.36188e-10 0)
(3 7.03944e-10 0)
(3 1.99892e-09 0)
(3 5.56566e-09 0)
(3 1.53184e-08 0)
(3 4.17796e-08 0)
(3 1.13057e-07 0)
(3 3.03857e-07 0)
(3 8.11769e-07 0)
(3 2.15755e-06 0)
(3 5.70664e-06 0)
(2.99999 1.50289e-05 0)
(2.99997 3.93918e-05 0)
(2.99992 0.000102813 0)
(2.99978 0.000266943 0)
(2.99941 0.000690539 0)
(2.99844 0.00177865 0)
(2.99582 0.00458781 0)
(2.98866 0.011912 0)
(2.96783 0.0319315 0)
(2.90022 0.0922011 0)
(2.63055 0.310999 0)
(1.95643 1.07699 0)
(3 3.16893e-12 0)
(3 1.99878e-11 0)
(3 7.00725e-11 0)
(3 2.12228e-10 0)
(3 6.13974e-10 0)
(3 1.74272e-09 0)
(3 4.88951e-09 0)
(3 1.35927e-08 0)
(3 3.74987e-08 0)
(3 1.02787e-07 0)
(3 2.80341e-07 0)
(3 7.61509e-07 0)
(3 2.06246e-06 0)
(3 5.57049e-06 0)
(2.99999 1.50125e-05 0)
(2.99998 4.0337e-05 0)
(2.99994 0.000108112 0)
(2.99983 0.000288617 0)
(2.99952 0.000768928 0)
(2.99868 0.0020428 0)
(2.99635 0.0054515 0)
(2.98969 0.0147228 0)
(2.96952 0.0416615 0)
(2.8997 0.131594 0)
(2.57534 0.55708 0)
(3 7.85037e-13 0)
(3 4.97391e-12 0)
(3 1.7544e-11 0)
(3 5.35858e-11 0)
(3 1.56435e-10 0)
(3 4.47936e-10 0)
(3 1.267e-09 0)
(3 3.54862e-09 0)
(3 9.85655e-09 0)
(3 2.7191e-08 0)
(3 7.46176e-08 0)
(3 2.04022e-07 0)
(3 5.56667e-07 0)
(3 1.51772e-06 0)
(3 4.1394e-06 0)
(2.99999 1.13013e-05 0)
(2.99999 3.09025e-05 0)
(2.99996 8.46126e-05 0)
(2.9999 0.000232119 0)
(2.99971 0.000637314 0)
(2.9992 0.00175645 0)
(2.99774 0.00485997 0)
(2.99345 0.0137243 0)
(2.9805 0.0406644 0)
(2.92667 0.147404 0)
(3 1.6148e-13 0)
(3 1.02975e-12 0)
(3 3.66457e-12 0)
(3 1.13318e-11 0)
(3 3.35223e-11 0)
(3 9.72036e-11 0)
(3 2.7807e-10 0)
(3 7.86409e-10 0)
(3 2.20163e-09 0)
(3 6.10939e-09 0)
(3 1.68276e-08 0)
(3 4.60744e-08 0)
(3 1.2559e-07 0)
(3 3.41335e-07 0)
(3 9.26154e-07 0)
(3 2.51274e-06 0)
(3 6.82235e-06 0)
(2.99999 1.85746e-05 0)
(2.99998 5.07275e-05 0)
(2.99995 0.000139426 0)
(2.99987 0.000385332 0)
(2.99964 0.00107698 0)
(2.999 0.00303359 0)
(2.99721 0.00876085 0)
(2.99208 0.0261998 0)
(3 3.08129e-14 0)
(3 1.96188e-13 0)
(3 7.02708e-13 0)
(3 2.18523e-12 0)
(3 6.5065e-12 0)
(3 1.89664e-11 0)
(3 5.44923e-11 0)
(3 1.54596e-10 0)
(3 4.33604e-10 0)
(3 1.20369e-09 0)
(3 3.31127e-09 0)
(3 9.03901e-09 0)
(3 2.45178e-08 0)
(3 6.61783e-08 0)
(3 1.77986e-07 0)
(3 4.7763e-07 0)
(3 1.28027e-06 0)
(3 3.43178e-06 0)
(3 9.20883e-06 0)
(2.99999 2.4762e-05 0)
(2.99998 6.68382e-05 0)
(2.99995 0.000181167 0)
(2.99987 0.000494673 0)
(2.99965 0.00135721 0)
(2.99911 0.00376276 0)
(3 5.0285e-15 0)
(3 3.2279e-14 0)
(3 1.16558e-13 0)
(3 3.65726e-13 0)
(3 1.10053e-12 0)
(3 3.24243e-12 0)
(3 9.40619e-12 0)
(3 2.69135e-11 0)
(3 7.60072e-11 0)
(3 2.12082e-10 0)
(3 5.85194e-10 0)
(3 1.59857e-09 0)
(3 4.32758e-09 0)
(3 1.16248e-08 0)
(3 3.10165e-08 0)
(3 8.23026e-08 0)
(3 2.1738e-07 0)
(3 5.72132e-07 0)
(3 1.50156e-06 0)
(3 3.93331e-06 0)
(3 1.02907e-05 0)
(2.99999 2.69052e-05 0)
(2.99998 7.03384e-05 0)
(2.99996 0.000183688 0)
(2.9999 0.000478401 0)
(3 6.0268e-16 0)
(3 5.25191e-15 0)
(3 1.80542e-14 0)
(3 5.86543e-14 0)
(3 1.7566e-13 0)
(3 5.22759e-13 0)
(3 1.5227e-12 0)
(3 4.37317e-12 0)
(3 1.23777e-11 0)
(3 3.45666e-11 0)
(3 9.53277e-11 0)
(3 2.59831e-10 0)
(3 7.00618e-10 0)
(3 1.87063e-09 0)
(3 4.95037e-09 0)
(3 1.29955e-08 0)
(3 3.38735e-08 0)
(3 8.77141e-08 0)
(3 2.25828e-07 0)
(3 5.78047e-07 0)
(3 1.47209e-06 0)
(3 3.72595e-06 0)
(3 9.37645e-06 0)
(3 2.33833e-05 0)
(2.99999 5.77077e-05 0)
(3 2.00471e-16 0)
(3 7.46888e-16 0)
(3 2.29215e-15 0)
(3 7.69681e-15 0)
(3 2.44367e-14 0)
(3 7.42673e-14 0)
(3 2.19751e-13 0)
(3 6.36796e-13 0)
(3 1.81681e-12 0)
(3 5.10599e-12 0)
(3 1.41494e-11 0)
(3 3.86874e-11 0)
(3 1.04451e-10 0)
(3 2.78642e-10 0)
(3 7.35044e-10 0)
(3 1.91846e-09 0)
(3 4.95794e-09 0)
(3 1.26903e-08 0)
(3 3.21932e-08 0)
(3 8.09208e-08 0)
(3 2.01642e-07 0)
(3 4.97566e-07 0)
(3 1.21591e-06 0)
(3 2.93526e-06 0)
(3 6.98938e-06 0)
(3 9.343e-17 0)
(3 8.4491e-17 0)
(3 1.53855e-16 0)
(3 6.09503e-16 0)
(3 2.78684e-15 0)
(3 9.53471e-15 0)
(3 2.97437e-14 0)
(3 8.8373e-14 0)
(3 2.54342e-13 0)
(3 7.19673e-13 0)
(3 1.9981e-12 0)
(3 5.46868e-12 0)
(3 1.47495e-11 0)
(3 3.92538e-11 0)
(3 1.03129e-10 0)
(3 2.6762e-10 0)
(3 6.86316e-10 0)
(3 1.73987e-09 0)
(3 4.36168e-09 0)
(3 1.08122e-08 0)
(3 2.65009e-08 0)
(3 6.41924e-08 0)
(3 1.53526e-07 0)
(3 3.6212e-07 0)
(3 8.40317e-07 0)
(3 -1.39995e-16 0)
(3 -1.9962e-16 0)
(3 -2.92248e-16 0)
(3 -2.90051e-16 0)
(3 -2.82024e-16 0)
(3 1.92907e-16 0)
(3 2.38657e-15 0)
(3 9.31683e-15 0)
(3 3.06266e-14 0)
(3 9.01173e-14 0)
(3 2.55962e-13 0)
(3 7.07348e-13 0)
(3 1.91904e-12 0)
(3 5.12311e-12 0)
(3 1.34779e-11 0)
(3 3.496e-11 0)
(3 8.94487e-11 0)
(3 2.25819e-10 0)
(3 5.62574e-10 0)
(3 1.38319e-09 0)
(3 3.35522e-09 0)
(3 8.02854e-09 0)
(3 1.89319e-08 0)
(3 4.39704e-08 0)
(3 1.00398e-07 0)
(3 8.67616e-17 0)
(3 1.54401e-17 0)
(3 -1.06651e-16 0)
(3 -2.00437e-16 0)
(3 -3.97943e-16 0)
(3 -4.43968e-16 0)
(3 -3.6942e-16 0)
(3 2.40049e-16 0)
(3 2.59743e-15 0)
(3 1.00072e-14 0)
(3 3.03801e-14 0)
(3 8.76357e-14 0)
(3 2.3999e-13 0)
(3 6.45276e-13 0)
(3 1.69727e-12 0)
(3 4.40048e-12 0)
(3 1.12277e-11 0)
(3 2.82344e-11 0)
(3 6.99686e-11 0)
(3 1.70909e-10 0)
(3 4.11374e-10 0)
(3 9.75629e-10 0)
(3 2.27817e-09 0)
(3 5.23572e-09 0)
(3 1.18282e-08 0)
(3 -2.04348e-17 0)
(3 -1.45715e-17 0)
(3 -5.12208e-17 0)
(3 -2.1663e-16 0)
(3 -3.85574e-16 0)
(3 -3.72018e-16 0)
(3 -3.77737e-16 0)
(3 -3.19367e-16 0)
(3 -1.4471e-16 0)
(3 3.11839e-16 0)
(3 2.53817e-15 0)
(3 8.55518e-15 0)
(3 2.6255e-14 0)
(3 7.36538e-14 0)
(3 1.97352e-13 0)
(3 5.15566e-13 0)
(3 1.31819e-12 0)
(3 3.31953e-12 0)
(3 8.21991e-12 0)
(3 2.00467e-11 0)
(3 4.81091e-11 0)
(3 1.13651e-10 0)
(3 2.64106e-10 0)
(3 6.03709e-10 0)
(3 1.3562e-09 0)
(3 -1.07245e-16 0)
(3 -2.36023e-16 0)
(3 -3.03263e-16 0)
(3 -2.60427e-16 0)
(3 -8.15515e-17 0)
(3 2.15704e-17 0)
(3 1.47306e-16 0)
(3 2.34185e-16 0)
(3 3.24709e-16 0)
(3 3.87554e-16 0)
(3 6.40135e-16 0)
(3 1.21157e-15 0)
(3 2.99789e-15 0)
(3 7.88391e-15 0)
(3 2.21424e-14 0)
(3 5.78751e-14 0)
(3 1.50199e-13 0)
(3 3.79326e-13 0)
(3 9.40548e-13 0)
(3 2.29226e-12 0)
(3 5.49002e-12 0)
(3 1.29338e-11 0)
(3 2.99552e-11 0)
(3 6.82222e-11 0)
(3 1.52695e-10 0)
(3 -4.14167e-18 0)
(3 -7.26691e-18 0)
(3 -3.42451e-18 0)
(3 8.06375e-17 0)
(3 1.46657e-16 0)
(3 1.47186e-16 0)
(3 1.81917e-16 0)
(3 3.51634e-16 0)
(3 4.56845e-16 0)
(3 5.45411e-16 0)
(3 5.96937e-16 0)
(3 9.32167e-16 0)
(3 1.12129e-15 0)
(3 1.38973e-15 0)
(3 2.43526e-15 0)
(3 5.84977e-15 0)
(3 1.50349e-14 0)
(3 3.90023e-14 0)
(3 9.90676e-14 0)
(3 2.43881e-13 0)
(3 5.89422e-13 0)
(3 1.39134e-12 0)
(3 3.22873e-12 0)
(3 7.35099e-12 0)
(3 1.64487e-11 0)
(3 2.83797e-17 0)
(3 9.72262e-17 0)
(3 6.19805e-17 0)
(3 -1.03592e-17 0)
(3 -5.54144e-17 0)
(3 -1.10789e-16 0)
(3 -1.48489e-16 0)
(3 -1.50304e-16 0)
(3 -9.26136e-17 0)
(3 -7.78222e-18 0)
(3 2.08157e-17 0)
(3 1.04848e-16 0)
(3 2.52437e-16 0)
(3 3.15366e-16 0)
(3 1.7509e-16 0)
(3 1.41211e-16 0)
(3 6.67224e-16 0)
(3 2.8178e-15 0)
(3 8.696e-15 0)
(3 2.37804e-14 0)
(3 6.07132e-14 0)
(3 1.45604e-13 0)
(3 3.42135e-13 0)
(3 7.77601e-13 0)
(3 1.7454e-12 0)
(3 -3.93633e-17 0)
(3 -1.30038e-16 0)
(3 -1.50035e-16 0)
(3 -2.49604e-16 0)
(3 -3.77867e-16 0)
(3 -4.95338e-16 0)
(3 -5.21567e-16 0)
(3 -5.13884e-16 0)
(3 -5.01454e-16 0)
(3 -2.19028e-16 0)
(3 1.1512e-16 0)
(3 1.26427e-16 0)
(3 1.13055e-16 0)
(3 1.78834e-16 0)
(3 1.07672e-16 0)
(3 1.6319e-16 0)
(3 3.24558e-16 0)
(3 8.82149e-16 0)
(3 1.90583e-15 0)
(3 3.72562e-15 0)
(3 7.23545e-15 0)
(3 1.55156e-14 0)
(3 3.47042e-14 0)
(3 7.72745e-14 0)
(3 1.74174e-13 0)
(3 6.67956e-17 0)
(3 9.72619e-17 0)
(3 1.50746e-16 0)
(3 7.22838e-17 0)
(3 4.59874e-17 0)
(3 -8.9673e-17 0)
(3 -1.59289e-16 0)
(3 -1.0134e-16 0)
(3 -4.6658e-17 0)
(3 1.65072e-16 0)
(3 4.25282e-16 0)
(3 7.14374e-16 0)
(3 9.67934e-16 0)
(3 1.0129e-15 0)
(3 1.1993e-15 0)
(3 1.28309e-15 0)
(3 1.40098e-15 0)
(3 1.65805e-15 0)
(3 1.98806e-15 0)
(3 2.10269e-15 0)
(3 2.21238e-15 0)
(3 2.60835e-15 0)
(3 3.6453e-15 0)
(3 7.64169e-15 0)
(3 1.67906e-14 0)
(3 4.08257e-17 0)
(3 1.15092e-16 0)
(3 1.99496e-16 0)
(3 3.42606e-16 0)
(3 5.4152e-16 0)
(3 6.10551e-16 0)
(3 6.18439e-16 0)
(3 7.33048e-16 0)
(3 9.30741e-16 0)
(3 9.14733e-16 0)
(3 8.15417e-16 0)
(3 8.33562e-16 0)
(3 1.05021e-15 0)
(3 1.07636e-15 0)
(3 1.01772e-15 0)
(3 9.41704e-16 0)
(3 9.70264e-16 0)
(3 7.77268e-16 0)
(3 4.88716e-16 0)
(3 3.37211e-16 0)
(3 1.7046e-16 0)
(3 2.20689e-16 0)
(3 4.53926e-16 0)
(3 9.41917e-16 0)
(3 1.92049e-15 0)
(3 -1.10318e-16 0)
(3 -1.21803e-16 0)
(3 -1.62568e-16 0)
(3 -1.35146e-16 0)
(3 -2.26577e-16 0)
(3 -3.36309e-16 0)
(3 -2.79001e-16 0)
(3 -1.05093e-16 0)
(3 -2.32209e-17 0)
(3 9.80189e-17 0)
(3 2.43554e-16 0)
(3 3.35384e-16 0)
(3 2.17372e-16 0)
(3 2.23437e-16 0)
(3 1.05865e-16 0)
(3 5.93827e-17 0)
(3 -9.19935e-18 0)
(3 -1.49227e-17 0)
(3 4.6417e-17 0)
(3 2.82135e-16 0)
(3 4.61676e-16 0)
(3 5.20347e-16 0)
(3 4.29012e-16 0)
(3 4.18049e-16 0)
(3 3.16452e-16 0)
(3 3.82968e-17 0)
(3 8.11156e-17 0)
(3 4.43898e-17 0)
(3 2.21927e-17 0)
(3 -5.35435e-17 0)
(3 1.3348e-16 0)
(3 3.52575e-16 0)
(3 4.86481e-16 0)
(3 5.58031e-16 0)
(3 6.40478e-16 0)
(3 7.97487e-16 0)
(3 7.81189e-16 0)
(3 5.74397e-16 0)
(3 3.41384e-16 0)
(3 -5.05828e-18 0)
(3 -4.32952e-16 0)
(3 -8.88297e-16 0)
(3 -1.25038e-15 0)
(3 -1.31963e-15 0)
(3 -1.197e-15 0)
(3 -7.89761e-16 0)
(3 -4.29926e-16 0)
(3 -3.95785e-17 0)
(3 3.25958e-16 0)
(3 5.01993e-16 0)
(3 -3.10398e-17 0)
(3 -1.02956e-16 0)
(3 -9.854e-17 0)
(3 5.79797e-17 0)
(3 2.82394e-16 0)
(3 5.44695e-16 0)
(3 8.49054e-16 0)
(3 8.18754e-16 0)
(3 8.92081e-16 0)
(3 8.30993e-16 0)
(3 6.07746e-16 0)
(3 3.87061e-16 0)
(3 3.70223e-17 0)
(3 -3.61901e-16 0)
(3 -5.37185e-16 0)
(3 -6.44028e-16 0)
(3 -7.00187e-16 0)
(3 -8.90494e-16 0)
(3 -1.07464e-15 0)
(3 -1.21612e-15 0)
(3 -1.21719e-15 0)
(3 -1.05026e-15 0)
(3 -7.70052e-16 0)
(3 -6.0044e-16 0)
(3 -3.02052e-16 0)
(3 -4.6443e-17 0)
(3 -1.45403e-16 0)
(3 -2.53681e-16 0)
(3 -2.80164e-16 0)
(3 -7.27576e-17 0)
(3 2.00934e-17 0)
(3 7.92959e-17 0)
(3 1.87858e-16 0)
(3 1.17927e-16 0)
(3 4.60945e-17 0)
(3 -2.45632e-16 0)
(3 -5.31056e-16 0)
(3 -8.54447e-16 0)
(3 -1.06843e-15 0)
(3 -1.00645e-15 0)
(3 -7.22045e-16 0)
(3 -3.69662e-16 0)
(3 6.82131e-17 0)
(3 4.03149e-16 0)
(3 5.34888e-16 0)
(3 4.17298e-16 0)
(3 3.1137e-16 0)
(3 7.60806e-17 0)
(3 -1.99064e-16 0)
(3 -3.99058e-16 0)
(3 -4.21906e-19 0)
(3 8.81931e-17 0)
(3 1.89989e-16 0)
(3 1.31404e-16 0)
(3 -3.99179e-17 0)
(3 -8.87736e-17 0)
(3 -1.56246e-16 0)
(3 -2.18285e-16 0)
(3 -3.37603e-16 0)
(3 -4.68856e-16 0)
(3 -5.71309e-16 0)
(3 -5.92109e-16 0)
(3 -4.29399e-16 0)
(3 -8.05499e-17 0)
(3 5.21511e-17 0)
(3 2.34951e-16 0)
(3 3.62092e-16 0)
(3 3.53763e-16 0)
(3 2.11122e-16 0)
(3 2.73363e-16 0)
(3 3.60252e-16 0)
(3 4.01773e-16 0)
(3 3.68191e-16 0)
(3 1.72731e-16 0)
(3 -1.65393e-16 0)
(3 -3.63694e-17 0)
(3 2.22572e-17 0)
(3 -1.62562e-17 0)
(3 -1.84357e-16 0)
(3 -5.86069e-16 0)
(3 -8.47134e-16 0)
(3 -8.97432e-16 0)
(3 -8.80524e-16 0)
(3 -7.01613e-16 0)
(3 -4.83446e-16 0)
(3 -3.17234e-16 0)
(3 -1.57973e-16 0)
(3 -8.38772e-17 0)
(3 3.50763e-18 0)
(3 1.10553e-16 0)
(3 1.27406e-16 0)
(3 -5.96453e-18 0)
(3 -2.30278e-16 0)
(3 -5.05735e-16 0)
(3 -7.85289e-16 0)
(3 -7.88403e-16 0)
(3 -7.9255e-16 0)
(3 -7.39786e-16 0)
(3 -5.5209e-16 0)
(3 -2.76142e-16 0)
(3 -3.60395e-17 0)
(3 -6.82814e-17 0)
(3 -6.64007e-17 0)
(3 2.77593e-17 0)
(3 1.18445e-16 0)
(3 5.69689e-17 0)
(3 -3.40042e-17 0)
(3 -2.95732e-17 0)
(3 -3.88603e-17 0)
(3 -1.62416e-16 0)
(3 -3.67594e-16 0)
(3 -4.58911e-16 0)
(3 -4.44281e-16 0)
(3 -4.27529e-16 0)
(3 -3.98836e-16 0)
(3 -4.79087e-16 0)
(3 -3.98006e-16 0)
(3 -1.32891e-16 0)
(3 1.23651e-16 0)
(3 1.66009e-16 0)
(3 6.97952e-17 0)
(3 -1.20008e-16 0)
(3 -2.54913e-16 0)
(3 -3.09021e-16 0)
(3 -2.78619e-16 0)
(3 1.15391e-17 0)
(3 -9.12768e-18 0)
(3 1.60414e-16 0)
(3 3.95609e-16 0)
(3 6.6509e-16 0)
(3 6.88834e-16 0)
(3 5.04558e-16 0)
(3 1.37874e-16 0)
(3 -2.18487e-16 0)
(3 -4.94019e-16 0)
(3 -5.96395e-16 0)
(3 -6.73145e-16 0)
(3 -5.68946e-16 0)
(3 -4.08302e-16 0)
(3 -3.38292e-16 0)
(3 -2.18418e-16 0)
(3 -8.21942e-17 0)
(3 -3.17342e-17 0)
(3 1.4253e-16 0)
(3 2.56577e-16 0)
(3 1.49363e-16 0)
(3 4.01978e-17 0)
(3 -2.50295e-16 0)
(3 -5.17657e-16 0)
(3 -8.7485e-16 0)
(3 3.43832e-17 0)
(3 8.15709e-18 0)
(3 9.80316e-17 0)
(3 6.19451e-17 0)
(3 1.48642e-16 0)
(3 1.74281e-16 0)
(3 -9.07752e-18 0)
(3 -2.30495e-16 0)
(3 -5.28623e-16 0)
(3 -6.10893e-16 0)
(3 -4.50166e-16 0)
(3 -3.14904e-16 0)
(3 -1.88729e-16 0)
(3 -3.13198e-17 0)
(3 9.79108e-17 0)
(3 8.27324e-17 0)
(3 1.33283e-16 0)
(3 1.04617e-16 0)
(3 1.40801e-16 0)
(3 1.88283e-16 0)
(3 1.59711e-16 0)
(3 2.55596e-17 0)
(3 -2.21374e-16 0)
(3 -3.41681e-16 0)
(3 -2.19702e-16 0)
(3 -6.27743e-17 0)
(3 -1.82121e-17 0)
(3 3.76559e-17 0)
(3 -9.82872e-17 0)
(3 -3.37972e-16 0)
(3 -5.34494e-16 0)
(3 -6.83334e-16 0)
(3 -9.11216e-16 0)
(3 -1.06503e-15 0)
(3 -8.89249e-16 0)
(3 -7.93791e-16 0)
(3 -4.21608e-16 0)
(3 -2.41972e-17 0)
(3 3.18022e-16 0)
(3 6.89174e-16 0)
(3 9.27933e-16 0)
(3 9.37258e-16 0)
(3 9.68048e-16 0)
(3 7.85656e-16 0)
(3 5.23648e-16 0)
(3 1.22227e-16 0)
(3 -2.57336e-16 0)
(3 -4.22956e-16 0)
(3 -3.47187e-16 0)
(3 -1.67979e-16 0)
(3 1.67083e-18 0)
(3 -3.76138e-17 0)
(3 -2.15542e-16 0)
(3 -5.54062e-16 0)
(3 -7.0068e-16 0)
(3 -6.54316e-16 0)
(3 -5.92899e-16 0)
(3 -4.71858e-16 0)
(3 -2.57044e-16 0)
(3 3.4539e-17 0)
(3 2.31261e-16 0)
(3 9.92565e-17 0)
(3 1.22203e-17 0)
(3 -4.80437e-17 0)
(3 -1.8429e-17 0)
(3 5.5908e-17 0)
(3 -2.47755e-17 0)
(3 -1.52204e-16 0)
(3 -3.026e-16 0)
(3 -4.09787e-16 0)
(3 -4.80482e-16 0)
(3 -2.71775e-16 0)
(3 9.95402e-17 0)
(3 3.89234e-16 0)
(3 4.52259e-16 0)
(3 4.12688e-17 0)
(3 6.514e-18 0)
(3 -1.64366e-16 0)
(3 -2.46043e-16 0)
(3 -3.02977e-16 0)
(3 -3.13356e-16 0)
(3 -2.51775e-16 0)
(3 1.35367e-16 0)
(3 4.14275e-16 0)
(3 2.04846e-16 0)
(3 -3.54713e-17 0)
(3 -2.08083e-16 0)
(3 -4.25178e-16 0)
(3 -4.26261e-16 0)
(3 -5.47063e-16 0)
(3 -5.95593e-16 0)
(3 -4.52347e-16 0)
(3 -3.54694e-16 0)
(3 -1.16599e-16 0)
(3 1.28346e-16 0)
(3 3.19886e-16 0)
(3 4.93795e-16 0)
(3 6.47604e-16 0)
(3 7.07855e-16 0)
(3 6.61088e-16 0)
(3 5.89663e-17 0)
(3 1.96307e-17 0)
(3 -3.96855e-17 0)
(3 5.16034e-17 0)
(3 -4.1428e-17 0)
(3 -5.61285e-17 0)
(3 1.17525e-18 0)
(3 -1.77636e-17 0)
(3 8.85946e-17 0)
(3 1.6203e-17 0)
(3 -3.5909e-17 0)
(3 -7.89794e-17 0)
(3 -1.10098e-16 0)
(3 -1.77167e-16 0)
(3 -2.01058e-16 0)
(3 -2.18267e-16 0)
(3 -2.05722e-16 0)
(3 4.02193e-20 0)
(3 2.29075e-16 0)
(3 2.92575e-16 0)
(3 1.85441e-16 0)
(3 5.03021e-17 0)
(3 -1.14848e-17 0)
(3 -2.20192e-16 0)
(3 -4.30124e-16 0)
(3 -4.84188e-18 0)
(3 5.61184e-17 0)
(3 9.45896e-17 0)
(3 2.59042e-16 0)
(3 5.42159e-16 0)
(3 7.36976e-16 0)
(3 7.9002e-16 0)
(3 6.67751e-16 0)
(3 6.02529e-16 0)
(3 6.24814e-16 0)
(3 6.99679e-16 0)
(3 6.59678e-16 0)
(3 5.02714e-16 0)
(3 2.76353e-16 0)
(3 2.45055e-16 0)
(3 2.521e-16 0)
(3 2.0625e-16 0)
(3 2.01848e-16 0)
(3 -1.34912e-16 0)
(3 -5.22693e-16 0)
(3 -5.57146e-16 0)
(3 -5.30045e-16 0)
(3 -5.1012e-16 0)
(3 -5.87059e-16 0)
(3 -6.23681e-16 0)
(3 7.15301e-17 0)
(3 1.97101e-16 0)
(3 4.08645e-16 0)
(3 8.35284e-16 0)
(3 1.18675e-15 0)
(3 1.29854e-15 0)
(3 1.21413e-15 0)
(3 1.0575e-15 0)
(3 5.92526e-16 0)
(3 3.59787e-16 0)
(3 3.01344e-16 0)
(3 2.92622e-16 0)
(3 2.83413e-16 0)
(3 2.61763e-16 0)
(3 2.7347e-16 0)
(3 4.2988e-16 0)
(3 6.68815e-16 0)
(3 8.27167e-16 0)
(3 8.49882e-16 0)
(3 8.43054e-16 0)
(3 8.0327e-16 0)
(3 6.59021e-16 0)
(3 3.05364e-16 0)
(3 -7.67464e-18 0)
(3 -2.2084e-16 0)
(3 -2.81699e-17 0)
(3 9.08827e-17 0)
(3 4.03089e-16 0)
(3 6.75705e-16 0)
(3 8.67754e-16 0)
(3 9.94697e-16 0)
(3 1.07218e-15 0)
(3 1.09295e-15 0)
(3 8.79602e-16 0)
(3 6.65624e-16 0)
(3 6.28415e-16 0)
(3 4.15674e-16 0)
(3 3.47746e-16 0)
(3 4.77571e-16 0)
(3 5.03597e-16 0)
(3 7.65016e-16 0)
(3 8.5834e-16 0)
(3 8.21952e-16 0)
(3 9.88076e-16 0)
(3 1.12408e-15 0)
(3 9.9462e-16 0)
(3 9.26517e-16 0)
(3 8.62887e-16 0)
(3 6.06677e-16 0)
(3 3.12198e-16 0)
(3 -1.42875e-17 0)
(3 -3.71653e-17 0)
(3 3.96917e-17 0)
(3 -5.83367e-17 0)
(3 -1.98674e-17 0)
(3 -7.40148e-17 0)
(3 -6.87433e-17 0)
(3 3.48886e-17 0)
(3 5.54803e-16 0)
(3 8.03582e-16 0)
(3 8.50584e-16 0)
(3 9.10379e-16 0)
(3 8.77513e-16 0)
(3 7.69201e-16 0)
(3 7.29266e-16 0)
(3 7.15515e-16 0)
(3 6.69481e-16 0)
(3 6.26788e-16 0)
(3 6.40888e-16 0)
(3 6.57964e-16 0)
(3 7.60579e-16 0)
(3 7.91077e-16 0)
(3 8.89836e-16 0)
(3 1.03016e-15 0)
(3 9.96e-16 0)
(3 1.39516e-16 0)
(3 6.21998e-17 0)
(3 4.36183e-17 0)
(3 4.0655e-17 0)
(3 8.06618e-17 0)
(3 1.29072e-16 0)
(3 1.7825e-16 0)
(3 2.15099e-16 0)
(3 4.13088e-16 0)
(3 6.98202e-16 0)
(3 8.36e-16 0)
(3 1.01383e-15 0)
(3 1.18358e-15 0)
(3 1.10213e-15 0)
(3 8.11352e-16 0)
(3 3.41383e-16 0)
(3 4.0294e-17 0)
(3 1.01582e-17 0)
(3 -9.77522e-19 0)
(3 5.54199e-17 0)
(3 2.546e-16 0)
(3 3.96536e-16 0)
(3 3.45661e-16 0)
(3 3.95794e-16 0)
(3 6.71186e-16 0)
(3 -6.6163e-18 0)
(3 -1.17102e-19 0)
(3 2.93903e-17 0)
(3 2.61523e-16 0)
(3 2.74643e-16 0)
(3 4.56756e-16 0)
(3 6.29428e-16 0)
(3 6.79463e-16 0)
(3 5.8355e-16 0)
(3 5.7531e-16 0)
(3 6.49089e-16 0)
(3 6.46419e-16 0)
(3 6.88778e-16 0)
(3 6.98547e-16 0)
(3 6.57011e-16 0)
(3 4.98967e-16 0)
(3 1.52965e-16 0)
(3 -1.40936e-16 0)
(3 -4.86148e-16 0)
(3 -7.5704e-16 0)
(3 -8.36807e-16 0)
(3 -7.02336e-16 0)
(3 -4.98665e-16 0)
(3 -2.4584e-16 0)
(3 -8.38079e-17 0)
(3 -9.68487e-17 0)
(3 -1.05504e-16 0)
(3 -1.33274e-16 0)
(3 -3.79272e-18 0)
(3 2.81299e-18 0)
(3 1.06694e-16 0)
(3 2.00901e-16 0)
(3 1.49466e-16 0)
(3 2.1267e-16 0)
(3 3.20601e-16 0)
(3 4.08773e-16 0)
(3 4.24166e-16 0)
(3 4.61288e-16 0)
(3 4.91865e-16 0)
(3 6.36513e-16 0)
(3 6.46971e-16 0)
(3 5.10443e-16 0)
(3 2.72754e-16 0)
(3 -1.87327e-16 0)
(3 -3.98112e-16 0)
(3 -5.48323e-16 0)
(3 -5.88241e-16 0)
(3 -3.96036e-16 0)
(3 -2.23297e-16 0)
(3 -1.77869e-16 0)
(1.30835 1.39379 0)
(1.92901 1.2268 0)
(2.28936 0.988178 0)
(2.51541 0.737675 0)
(2.6613 0.502271 0)
(2.75645 0.304005 0)
(2.82917 0.15521 0)
(2.88512 0.0526144 0)
(2.92147 -0.0086132 0)
(2.94557 -0.0345503 0)
(2.96296 -0.0396288 0)
(2.97519 -0.0355276 0)
(2.98365 -0.0285844 0)
(2.98898 -0.0203583 0)
(2.992 -0.0128405 0)
(2.99375 -0.007283 0)
(2.99492 -0.00380276 0)
(2.99581 -0.00177777 0)
(2.99664 -0.000573597 0)
(2.99751 6.76744e-05 0)
(2.99832 0.000290327 0)
(2.99895 0.000270223 0)
(2.99938 0.000194817 0)
(2.99966 0.000127415 0)
(2.99982 7.79377e-05 0)
(2.99991 4.46719e-05 0)
(2.99996 2.43214e-05 0)
(2.99998 1.2676e-05 0)
(2.99999 6.36634e-06 0)
(3 3.09628e-06 0)
(3 1.46197e-06 0)
(3 6.71774e-07 0)
(3 3.01048e-07 0)
(3 1.31817e-07 0)
(3 5.6488e-08 0)
(3 2.37179e-08 0)
(3 9.76753e-09 0)
(3 3.94908e-09 0)
(3 1.56872e-09 0)
(3 6.12797e-10 0)
(3 2.35512e-10 0)
(3 8.91348e-11 0)
(3 3.32367e-11 0)
(3 1.22167e-11 0)
(3 4.42857e-12 0)
(3 1.58417e-12 0)
(3 5.59612e-13 0)
(3 1.95131e-13 0)
(3 6.71571e-14 0)
(3 2.2501e-14 0)
(3 7.05906e-15 0)
(3 1.91679e-15 0)
(3 3.53789e-16 0)
(3 1.22242e-16 0)
(3 2.42368e-16 0)
(3 2.54299e-16 0)
(3 3.52641e-16 0)
(3 3.63451e-16 0)
(3 2.47496e-16 0)
(3 8.63353e-17 0)
(3 -4.073e-17 0)
(3 -2.90096e-16 0)
(3 -3.78346e-16 0)
(3 -2.19995e-16 0)
(3 -2.20722e-16 0)
(3 -1.84748e-16 0)
(3 -1.18673e-16 0)
(3 -6.08216e-17 0)
(3 -2.53692e-16 0)
(3 -4.98223e-16 0)
(3 -6.59282e-16 0)
(3 -7.22169e-16 0)
(3 -7.98509e-16 0)
(3 -7.60116e-16 0)
(3 -6.26351e-16 0)
(3 -3.86092e-16 0)
(3 -3.18127e-16 0)
(3 -3.74275e-16 0)
(3 -3.2896e-16 0)
(3 -3.83842e-16 0)
(3 -2.73712e-16 0)
(3 -2.38599e-16 0)
(3 -3.73783e-16 0)
(3 -5.32892e-16 0)
(3 -5.83089e-16 0)
(3 -4.4969e-16 0)
(3 -3.83761e-16 0)
(3 -4.97363e-16 0)
(3 -5.58223e-16 0)
(3 -4.74438e-16 0)
(3 -3.02796e-16 0)
(3 -1.64539e-16 0)
(3 1.39197e-17 0)
(3 8.22279e-17 0)
(3 1.05294e-16 0)
(3 1.64182e-16 0)
(3 5.22205e-17 0)
(3 -9.28902e-17 0)
(3 -5.13713e-16 0)
(3 -7.70311e-16 0)
(1.58842 1.38055 0)
(2.02181 1.1485 0)
(2.32468 0.874789 0)
(2.53753 0.616894 0)
(2.6901 0.39363 0)
(2.80317 0.218626 0)
(2.89061 0.0955093 0)
(2.95941 0.0138696 0)
(3.01292 -0.0351747 0)
(3.05172 -0.0576578 0)
(3.07463 -0.064 0)
(3.08264 -0.0608384 0)
(3.08045 -0.0507505 0)
(3.07129 -0.0381703 0)
(3.05707 -0.0264486 0)
(3.0415 -0.0172696 0)
(3.02785 -0.0108708 0)
(3.01752 -0.00660474 0)
(3.01038 -0.00378141 0)
(3.00575 -0.00199114 0)
(3.00296 -0.00100433 0)
(3.00144 -0.000506424 0)
(3.00069 -0.000252234 0)
(3.00033 -0.000121326 0)
(3.00016 -5.63777e-05 0)
(3.00007 -2.58633e-05 0)
(3.00003 -1.16333e-05 0)
(3.00002 -5.17963e-06 0)
(3.00001 -2.28535e-06 0)
(3 -9.95888e-07 0)
(3 -4.28707e-07 0)
(3 -1.83079e-07 0)
(3 -7.71084e-08 0)
(3 -3.19514e-08 0)
(3 -1.30318e-08 0)
(3 -5.22751e-09 0)
(3 -2.06268e-09 0)
(3 -8.01343e-10 0)
(3 -3.06743e-10 0)
(3 -1.15695e-10 0)
(3 -4.30217e-11 0)
(3 -1.57601e-11 0)
(3 -5.69077e-12 0)
(3 -2.02674e-12 0)
(3 -7.12498e-13 0)
(3 -2.47519e-13 0)
(3 -8.49677e-14 0)
(3 -2.88126e-14 0)
(3 -9.58762e-15 0)
(3 -3.29722e-15 0)
(3 -1.26936e-15 0)
(3 -5.39674e-16 0)
(3 -1.37084e-16 0)
(3 2.09528e-16 0)
(3 3.91283e-16 0)
(3 4.21729e-16 0)
(3 6.22678e-16 0)
(3 8.25906e-16 0)
(3 1.01799e-15 0)
(3 9.39092e-16 0)
(3 6.97469e-16 0)
(3 4.60622e-16 0)
(3 2.94315e-16 0)
(3 3.03961e-16 0)
(3 2.48465e-16 0)
(3 2.48403e-16 0)
(3 3.58004e-16 0)
(3 2.93866e-16 0)
(3 1.99604e-16 0)
(3 -4.87184e-17 0)
(3 -2.3407e-16 0)
(3 -2.0416e-16 0)
(3 -1.94599e-16 0)
(3 -1.88171e-16 0)
(3 -3.06182e-16 0)
(3 -3.3741e-16 0)
(3 -2.99345e-16 0)
(3 -1.32872e-16 0)
(3 -5.19933e-17 0)
(3 -7.35773e-17 0)
(3 -3.07136e-17 0)
(3 -1.12783e-16 0)
(3 -3.69225e-16 0)
(3 -5.98766e-16 0)
(3 -8.17838e-16 0)
(3 -7.26532e-16 0)
(3 -4.99007e-16 0)
(3 -4.87972e-16 0)
(3 -4.42479e-16 0)
(3 -3.11646e-16 0)
(3 -1.18639e-16 0)
(3 -7.24763e-17 0)
(3 5.46544e-17 0)
(3 9.64296e-18 0)
(3 -2.76883e-17 0)
(3 -4.10595e-17 0)
(3 -1.06511e-16 0)
(3 -1.67815e-16 0)
(3 -2.89396e-16 0)
(3 -4.16624e-16 0)
(1.91414 1.25613 0)
(2.14584 1.14269 0)
(2.40178 0.948665 0)
(2.59906 0.756058 0)
(2.74763 0.589378 0)
(2.86252 0.452807 0)
(2.95294 0.346559 0)
(3.02191 0.266794 0)
(3.07136 0.209206 0)
(3.1006 0.166686 0)
(3.11013 0.131472 0)
(3.10634 0.102466 0)
(3.09401 0.0790783 0)
(3.07546 0.058305 0)
(3.05492 0.0402365 0)
(3.03634 0.0259288 0)
(3.02211 0.0156941 0)
(3.01252 0.00892162 0)
(3.00659 0.00474761 0)
(3.00315 0.00235513 0)
(3.0013 0.00110791 0)
(3.00047 0.000530764 0)
(3.00015 0.000258385 0)
(3.00003 0.000126404 0)
(3 6.15241e-05 0)
(2.99999 2.96678e-05 0)
(3 1.40829e-05 0)
(3 6.56234e-06 0)
(3 2.99871e-06 0)
(3 1.34312e-06 0)
(3 5.89555e-07 0)
(3 2.53632e-07 0)
(3 1.06988e-07 0)
(3 4.42726e-08 0)
(3 1.79733e-08 0)
(3 7.16565e-09 0)
(3 2.80786e-09 0)
(3 1.08205e-09 0)
(3 4.10426e-10 0)
(3 1.53272e-10 0)
(3 5.64123e-11 0)
(3 2.04628e-11 0)
(3 7.32075e-12 0)
(3 2.58455e-12 0)
(3 9.00357e-13 0)
(3 3.09315e-13 0)
(3 1.04587e-13 0)
(3 3.50296e-14 0)
(3 1.17615e-14 0)
(3 4.26721e-15 0)
(3 1.98852e-15 0)
(3 1.19324e-15 0)
(3 7.15309e-16 0)
(3 4.9771e-16 0)
(3 2.92715e-16 0)
(3 2.15875e-16 0)
(3 3.46862e-16 0)
(3 5.08556e-16 0)
(3 8.133e-16 0)
(3 1.0305e-15 0)
(3 1.09898e-15 0)
(3 1.1616e-15 0)
(3 1.03962e-15 0)
(3 5.8974e-16 0)
(3 2.73116e-16 0)
(3 8.3651e-17 0)
(3 9.89115e-17 0)
(3 2.18461e-16 0)
(3 4.67082e-16 0)
(3 6.97411e-16 0)
(3 9.00116e-16 0)
(3 1.01912e-15 0)
(3 9.44012e-16 0)
(3 7.61567e-16 0)
(3 5.29706e-16 0)
(3 2.43626e-16 0)
(3 9.54589e-17 0)
(3 2.40357e-17 0)
(3 -4.16358e-17 0)
(3 -8.02159e-17 0)