/*--------------------------------*- C++ -*----------------------------------*\
| =========                 |                                                 |
| \\      /  F ield         | OpenFOAM: The Open Source CFD Toolbox           |
|  \\    /   O peration     | Version:  v2006                                 |
|   \\  /    A nd           | Website:  www.openfoam.com                      |
|    \\/     M anipulation  |                                                 |
\*---------------------------------------------------------------------------*/
FoamFile
{
    version     2.0;
    format      ascii;
    class       volVectorField;
    location    "0.1";
    object      U;
}
// * * * * * * * * * * * * * * * * * * * * * * * * * * * * * * * * * * * * * //

dimensions      [0 1 -1 0 0 0 0];


internalField   nonuniform List<vector> 
5250
(
(3 1.31813e-15 0)
(3 8.20547e-15 0)
(3 2.92617e-14 0)
(3 9.53812e-14 0)
(3 3.08653e-13 0)
(3 1.03139e-12 0)
(3 3.54371e-12 0)
(3 1.24486e-11 0)
(3 4.47142e-11 0)
(3 1.61527e-10 0)
(2.99999 5.91133e-10 0)
(2.99998 2.16384e-09 0)
(2.99994 7.97037e-09 0)
(2.99983 2.94162e-08 0)
(2.99957 1.08232e-07 0)
(2.99887 3.98535e-07 0)
(2.99704 1.44259e-06 0)
(2.99213 5.23414e-06 0)
(2.97843 1.88245e-05 0)
(2.93573 7.19956e-05 0)
(2.78021 0.000310597 0)
(2.04451 0.00168249 0)
(0.674823 0.00810869 0)
(-0.978118 0.0133472 0)
(0.254421 0.0106912 0)
(3 4.08665e-15 0)
(3 2.62154e-14 0)
(3 1.03246e-13 0)
(3 3.68873e-13 0)
(3 1.31485e-12 0)
(3 4.70562e-12 0)
(3 1.69796e-11 0)
(3 6.11759e-11 0)
(3 2.21132e-10 0)
(3 7.95191e-10 0)
(2.99999 2.8622e-09 0)
(2.99998 1.0269e-08 0)
(2.99994 3.68441e-08 0)
(2.99983 1.32356e-07 0)
(2.99957 4.73479e-07 0)
(2.99887 1.69605e-06 0)
(2.99704 5.98715e-06 0)
(2.99214 2.11748e-05 0)
(2.97848 7.43834e-05 0)
(2.93599 0.000276532 0)
(2.78167 0.00115918 0)
(2.05491 0.00603394 0)
(0.694694 0.0285944 0)
(-0.972833 0.0458669 0)
(0.253615 0.0363261 0)
(3 1.44305e-14 0)
(3 9.87923e-14 0)
(3 3.94556e-13 0)
(3 1.44007e-12 0)
(3 5.17578e-12 0)
(3 1.84478e-11 0)
(3 6.562e-11 0)
(3 2.31252e-10 0)
(3 8.12732e-10 0)
(3 2.83028e-09 0)
(2.99999 9.83361e-09 0)
(2.99998 3.39508e-08 0)
(2.99994 1.17092e-07 0)
(2.99983 4.03015e-07 0)
(2.99957 1.38431e-06 0)
(2.99887 4.75118e-06 0)
(2.99705 1.61635e-05 0)
(2.99219 5.49862e-05 0)
(2.97864 0.000186705 0)
(2.93669 0.000666076 0)
(2.78539 0.00267545 0)
(2.08062 0.0130966 0)
(0.7407 0.0600739 0)
(-0.958448 0.0941109 0)
(0.250934 0.072413 0)
(3 6.80682e-14 0)
(3 4.55832e-13 0)
(3 1.77291e-12 0)
(3 6.22332e-12 0)
(3 2.14162e-11 0)
(3 7.29759e-11 0)
(3 2.4782e-10 0)
(3 8.33896e-10 0)
(3 2.79636e-09 0)
(3 9.28936e-09 0)
(2.99999 3.07705e-08 0)
(2.99998 1.01151e-07 0)
(2.99994 3.32028e-07 0)
(2.99983 1.0855e-06 0)
(2.99957 3.54604e-06 0)
(2.99888 1.15711e-05 0)
(2.99708 3.7611e-05 0)
(2.99229 0.000122441 0)
(2.979 0.000399656 0)
(2.93818 0.00136374 0)
(2.79275 0.00520991 0)
(2.1285 0.0237507 0)
(0.817832 0.10443 0)
(-0.927373 0.162476 0)
(0.242986 0.12044 0)
(3 2.72785e-13 0)
(3 1.79779e-12 0)
(3 6.82001e-12 0)
(3 2.31293e-11 0)
(3 7.65243e-11 0)
(3 2.503e-10 0)
(3 8.14326e-10 0)
(3 2.62397e-09 0)
(3 8.41244e-09 0)
(3 2.66995e-08 0)
(2.99999 8.43661e-08 0)
(2.99998 2.64157e-07 0)
(2.99994 8.24707e-07 0)
(2.99984 2.55828e-06 0)
(2.99958 7.92775e-06 0)
(2.9989 2.45053e-05 0)
(2.99714 7.57503e-05 0)
(2.99249 0.000235052 0)
(2.9797 0.000736293 0)
(2.9409 0.0024062 0)
(2.80514 0.00876183 0)
(2.20312 0.0374294 0)
(0.917575 0.158934 0)
(-0.863004 0.25025 0)
(0.224185 0.180381 0)
(3 1.0626e-12 0)
(3 6.87889e-12 0)
(3 2.52917e-11 0)
(3 8.21367e-11 0)
(3 2.5849e-10 0)
(3 8.02843e-10 0)
(3 2.47628e-09 0)
(3 7.56798e-09 0)
(3 2.29931e-08 0)
(3 6.92007e-08 0)
(2.99999 2.07205e-07 0)
(2.99998 6.14796e-07 0)
(2.99994 1.81747e-06 0)
(2.99984 5.33286e-06 0)
(2.99959 1.5629e-05 0)
(2.99894 4.56274e-05 0)
(2.99726 0.000133569 0)
(2.99284 0.000392741 0)
(2.98084 0.00117414 0)
(2.94516 0.00366216 0)
(2.8234 0.0127252 0)
(2.30582 0.051618 0)
(1.0342 0.214947 0)
(-0.746129 0.359447 0)
(0.187756 0.262056 0)
(3 3.3178e-12 0)
(3 2.11969e-11 0)
(3 7.61458e-11 0)
(3 2.39145e-10 0)
(3 7.23129e-10 0)
(3 2.15211e-09 0)
(3 6.34508e-09 0)
(3 1.85233e-08 0)
(3 5.36711e-08 0)
(3 1.54052e-07 0)
(2.99999 4.39373e-07 0)
(2.99998 1.24194e-06 0)
(2.99994 3.49341e-06 0)
(2.99985 9.74843e-06 0)
(2.99961 2.71385e-05 0)
(2.999 7.51679e-05 0)
(2.99743 0.000208797 0)
(2.99336 0.000581926 0)
(2.98246 0.00165326 0)
(2.95088 0.00488174 0)
(2.84694 0.0159929 0)
(2.42961 0.0608898 0)
(1.19397 0.249493 0)
(-0.561158 0.490205 0)
(0.131613 0.377165 0)
(3 9.76117e-12 0)
(3 6.1453e-11 0)
(3 2.15094e-10 0)
(3 6.4951e-10 0)
(3 1.87419e-09 0)
(3 5.30876e-09 0)
(3 1.48791e-08 0)
(3 4.13125e-08 0)
(3 1.13848e-07 0)
(3 3.11205e-07 0)
(2.99999 8.45549e-07 0)
(2.99998 2.28049e-06 0)
(2.99994 6.12174e-06 0)
(2.99986 1.63217e-05 0)
(2.99964 4.3395e-05 0)
(2.99909 0.000114778 0)
(2.99768 0.000304138 0)
(2.99405 0.000807086 0)
(2.98446 0.00217893 0)
(2.95743 0.00606818 0)
(2.87196 0.0184928 0)
(2.54838 0.0645641 0)
(1.42631 0.253995 0)
(-0.314273 0.631123 0)
(0.0654204 0.561326 0)
(3 2.10605e-11 0)
(3 1.3147e-10 0)
(3 4.53099e-10 0)
(3 1.33548e-09 0)
(3 3.74104e-09 0)
(3 1.0262e-08 0)
(3 2.78146e-08 0)
(3 7.46546e-08 0)
(3 1.988e-07 0)
(3 5.25319e-07 0)
(2.99999 1.38018e-06 0)
(2.99998 3.60327e-06 0)
(2.99995 9.3696e-06 0)
(2.99988 2.42273e-05 0)
(2.99969 6.24951e-05 0)
(2.99922 0.000160416 0)
(2.99801 0.000412106 0)
(2.99493 0.00105763 0)
(2.98687 0.00275033 0)
(2.9647 0.00731235 0)
(2.89708 0.0208939 0)
(2.65425 0.0671609 0)
(1.73053 0.246651 0)
(0.0402458 0.768672 0)
(0.029011 0.786167 0)
(3 4.16599e-11 0)
(3 2.58229e-10 0)
(3 8.77846e-10 0)
(3 2.5264e-09 0)
(3 6.86875e-09 0)
(3 1.82566e-08 0)
(3 4.79259e-08 0)
(3 1.2472e-07 0)
(3 3.22021e-07 0)
(3 8.26287e-07 0)
(2.99999 2.10749e-06 0)
(2.99999 5.35295e-06 0)
(2.99996 1.35378e-05 0)
(2.9999 3.41601e-05 0)
(2.99976 8.59428e-05 0)
(2.99938 0.000216118 0)
(2.99843 0.000542754 0)
(2.996 0.00136736 0)
(2.98969 0.00346534 0)
(2.97268 0.00896456 0)
(2.92267 0.0243538 0)
(2.74964 0.0730747 0)
(2.11227 0.249688 0)
(0.479085 0.891391 0)
(0.108929 1.16569 0)
(3 4.61035e-11 0)
(3 2.85781e-10 0)
(3 9.7191e-10 0)
(3 2.79952e-09 0)
(3 7.61947e-09 0)
(3 2.02725e-08 0)
(3 5.32534e-08 0)
(3 1.38615e-07 0)
(3 3.5771e-07 0)
(3 9.16744e-07 0)
(3 2.33277e-06 0)
(2.99999 5.90699e-06 0)
(2.99998 1.48754e-05 0)
(2.99994 3.7363e-05 0)
(2.99984 9.3484e-05 0)
(2.9996 0.000233896 0)
(2.99897 0.000583926 0)
(2.99737 0.00146334 0)
(2.99321 0.00367634 0)
(2.98216 0.00939045 0)
(2.95082 0.0247815 0)
(2.8488 0.0705378 0)
(2.50004 0.230349 0)
(1.25731 0.82818 0)
(0.602209 1.39483 0)
(3 2.60784e-11 0)
(3 1.62571e-10 0)
(3 5.59087e-10 0)
(3 1.64244e-09 0)
(3 4.58181e-09 0)
(3 1.25115e-08 0)
(3 3.37339e-08 0)
(3 9.00379e-08 0)
(3 2.3815e-07 0)
(3 6.24837e-07 0)
(3 1.6274e-06 0)
(3 4.21184e-06 0)
(2.99999 1.08378e-05 0)
(2.99997 2.77565e-05 0)
(2.99992 7.07696e-05 0)
(2.99979 0.000179868 0)
(2.99945 0.000455662 0)
(2.99858 0.00115335 0)
(2.9963 0.00291876 0)
(2.99029 0.00744347 0)
(2.97371 0.0193462 0)
(2.92383 0.0530268 0)
(2.75464 0.163871 0)
(2.07783 0.569377 0)
(1.27614 1.37722 0)
(3 1.02298e-11 0)
(3 6.41946e-11 0)
(3 2.23217e-10 0)
(3 6.67275e-10 0)
(3 1.90108e-09 0)
(3 5.31104e-09 0)
(3 1.46654e-08 0)
(3 4.0125e-08 0)
(3 1.0891e-07 0)
(3 2.93579e-07 0)
(3 7.86568e-07 0)
(3 2.09659e-06 0)
(3 5.56096e-06 0)
(2.99999 1.46873e-05 0)
(2.99997 3.86035e-05 0)
(2.99992 0.000101047 0)
(2.99978 0.000263071 0)
(2.99942 0.000682471 0)
(2.99845 0.00176236 0)
(2.99584 0.00455802 0)
(2.9887 0.0118609 0)
(2.96787 0.0318652 0)
(2.90021 0.0921464 0)
(2.63018 0.311227 0)
(1.95637 1.07713 0)
(3 2.97513e-12 0)
(3 1.87944e-11 0)
(3 6.60523e-11 0)
(3 2.00669e-10 0)
(3 5.82488e-10 0)
(3 1.6589e-09 0)
(3 4.66952e-09 0)
(3 1.30214e-08 0)
(3 3.60305e-08 0)
(3 9.90448e-08 0)
(3 2.70896e-07 0)
(3 7.37849e-07 0)
(3 2.00392e-06 0)
(3 5.42694e-06 0)
(2.99999 1.46673e-05 0)
(2.99998 3.95177e-05 0)
(2.99994 0.00010623 0)
(2.99983 0.000284376 0)
(2.99953 0.000759898 0)
(2.99869 0.00202419 0)
(2.99637 0.00541728 0)
(2.98972 0.0146651 0)
(2.96955 0.0415933 0)
(2.89961 0.13158 0)
(2.575 0.557401 0)
(3 7.35826e-13 0)
(3 4.66899e-12 0)
(3 1.65105e-11 0)
(3 5.05874e-11 0)
(3 1.48187e-10 0)
(3 4.25764e-10 0)
(3 1.20826e-09 0)
(3 3.39477e-09 0)
(3 9.4576e-09 0)
(3 2.61655e-08 0)
(3 7.20023e-08 0)
(3 1.97399e-07 0)
(3 5.40012e-07 0)
(3 1.47614e-06 0)
(3 4.03649e-06 0)
(3 1.10493e-05 0)
(2.99999 3.02947e-05 0)
(2.99996 8.31728e-05 0)
(2.9999 0.000228814 0)
(2.99972 0.000629965 0)
(2.9992 0.00174131 0)
(2.99775 0.00483086 0)
(2.99347 0.0136805 0)
(2.98051 0.0406175 0)
(2.92658 0.147505 0)
(3 1.51079e-13 0)
(3 9.6579e-13 0)
(3 3.44356e-12 0)
(3 1.06835e-11 0)
(3 3.17093e-11 0)
(3 9.2264e-11 0)
(3 2.64823e-10 0)
(3 7.51359e-10 0)
(3 2.11003e-09 0)
(3 5.87254e-09 0)
(3 1.62214e-08 0)
(3 4.45371e-08 0)
(3 1.21725e-07 0)
(3 3.31701e-07 0)
(3 9.02337e-07 0)
(3 2.45452e-06 0)
(3 6.68125e-06 0)
(2.99999 1.82388e-05 0)
(2.99998 4.9936e-05 0)
(2.99995 0.000137624 0)
(2.99987 0.00038129 0)
(2.99964 0.00106865 0)
(2.999 0.0030173 0)
(2.99721 0.00873788 0)
(2.99207 0.0261837 0)
(3 2.85362e-14 0)
(3 1.83902e-13 0)
(3 6.59143e-13 0)
(3 2.05785e-12 0)
(3 6.14708e-12 0)
(3 1.79833e-11 0)
(3 5.18468e-11 0)
(3 1.47579e-10 0)
(3 4.15243e-10 0)
(3 1.15624e-09 0)
(3 3.19005e-09 0)
(3 8.73271e-09 0)
(3 2.37513e-08 0)
(3 6.42804e-08 0)
(3 1.73329e-07 0)
(3 4.66336e-07 0)
(3 1.25317e-06 0)
(3 3.36776e-06 0)
(3 9.06001e-06 0)
(2.99999 2.44236e-05 0)
(2.99998 6.60927e-05 0)
(2.99995 0.000179583 0)
(2.99987 0.000491607 0)
(2.99965 0.00135196 0)
(2.99911 0.003758 0)
(3 4.66226e-15 0)
(3 2.96536e-14 0)
(3 1.08439e-13 0)
(3 3.41794e-13 0)
(3 1.03692e-12 0)
(3 3.06799e-12 0)
(3 8.93908e-12 0)
(3 2.56659e-11 0)
(3 7.27305e-11 0)
(3 2.03576e-10 0)
(3 5.63417e-10 0)
(3 1.54356e-09 0)
(3 4.19034e-09 0)
(3 1.1287e-08 0)
(3 3.01945e-08 0)
(3 8.03319e-08 0)
(3 2.12713e-07 0)
(3 5.61287e-07 0)
(3 1.47677e-06 0)
(3 3.87817e-06 0)
(3 1.01715e-05 0)
(2.99999 2.66589e-05 0)
(2.99998 6.98626e-05 0)
(2.99996 0.000182865 0)
(2.9999 0.000477324 0)
(3 4.30256e-16 0)
(3 3.51889e-15 0)
(3 1.53482e-14 0)
(3 5.18235e-14 0)
(3 1.62811e-13 0)
(3 4.91119e-13 0)
(3 1.44264e-12 0)
(3 4.16533e-12 0)
(3 1.18322e-11 0)
(3 3.31595e-11 0)
(3 9.17289e-11 0)
(3 2.50777e-10 0)
(3 6.78142e-10 0)
(3 1.81567e-09 0)
(3 4.81791e-09 0)
(3 1.26809e-08 0)
(3 3.31392e-08 0)
(3 8.6028e-08 0)
(3 2.22047e-07 0)
(3 5.69743e-07 0)
(3 1.45455e-06 0)
(3 3.69008e-06 0)
(3 9.30853e-06 0)
(3 2.32639e-05 0)
(2.99999 5.75398e-05 0)
(3 5.82958e-18 0)
(3 1.66146e-16 0)
(3 1.64118e-15 0)
(3 6.62137e-15 0)
(3 2.18446e-14 0)
(3 6.83793e-14 0)
(3 2.06191e-13 0)
(3 6.03883e-13 0)
(3 1.73359e-12 0)
(3 4.89223e-12 0)
(3 1.36056e-11 0)
(3 3.73181e-11 0)
(3 1.01058e-10 0)
(3 2.70359e-10 0)
(3 7.15177e-10 0)
(3 1.87155e-09 0)
(3 4.84942e-09 0)
(3 1.24435e-08 0)
(3 3.16468e-08 0)
(3 7.97363e-08 0)
(3 1.99175e-07 0)
(3 4.92587e-07 0)
(3 1.20654e-06 0)
(3 2.91872e-06 0)
(3 6.96443e-06 0)
(3 1.14956e-16 0)
(3 2.58562e-16 0)
(3 5.06094e-16 0)
(3 9.30385e-16 0)
(3 2.9e-15 0)
(3 8.58455e-15 0)
(3 2.76252e-14 0)
(3 8.18078e-14 0)
(3 2.41273e-13 0)
(3 6.85753e-13 0)
(3 1.91827e-12 0)
(3 5.26811e-12 0)
(3 1.42619e-11 0)
(3 3.80669e-11 0)
(3 1.00303e-10 0)
(3 2.60988e-10 0)
(3 6.71084e-10 0)
(3 1.70555e-09 0)
(3 4.28628e-09 0)
(3 1.06506e-08 0)
(3 2.6166e-08 0)
(3 6.35235e-08 0)
(3 1.52254e-07 0)
(3 3.59861e-07 0)
(3 8.36646e-07 0)
(3 -1.39301e-16 0)
(3 -2.66725e-16 0)
(3 -3.46556e-16 0)
(3 -2.51135e-16 0)
(3 1.61044e-16 0)
(3 1.08403e-15 0)
(3 3.22381e-15 0)
(3 1.03784e-14 0)
(3 2.9571e-14 0)
(3 8.74023e-14 0)
(3 2.45368e-13 0)
(3 6.82225e-13 0)
(3 1.85373e-12 0)
(3 4.96808e-12 0)
(3 1.3104e-11 0)
(3 3.40878e-11 0)
(3 8.74435e-11 0)
(3 2.21322e-10 0)
(3 5.52719e-10 0)
(3 1.36221e-09 0)
(3 3.3118e-09 0)
(3 7.94223e-09 0)
(3 1.87668e-08 0)
(3 4.36743e-08 0)
(3 9.98991e-08 0)
(3 3.50361e-17 0)
(3 1.00472e-16 0)
(3 1.54005e-16 0)
(3 2.43951e-16 0)
(3 9.7762e-17 0)
(3 1.24572e-16 0)
(3 4.89587e-16 0)
(3 1.44269e-15 0)
(3 3.83836e-15 0)
(3 1.03747e-14 0)
(3 2.94531e-14 0)
(3 8.36539e-14 0)
(3 2.30973e-13 0)
(3 6.23469e-13 0)
(3 1.64829e-12 0)
(3 4.28581e-12 0)
(3 1.09677e-11 0)
(3 2.76574e-11 0)
(3 6.871e-11 0)
(3 1.68247e-10 0)
(3 4.05873e-10 0)
(3 9.64697e-10 0)
(3 2.25717e-09 0)
(3 5.19749e-09 0)
(3 1.1762e-08 0)
(3 2.78474e-17 0)
(3 2.49735e-16 0)
(3 4.07268e-16 0)
(3 2.11586e-16 0)
(3 -1.30035e-16 0)
(3 -5.17694e-16 0)
(3 -7.46763e-16 0)
(3 -7.74082e-16 0)
(3 -4.38105e-16 0)
(3 3.34402e-16 0)
(3 2.58011e-15 0)
(3 8.50489e-15 0)
(3 2.58239e-14 0)
(3 7.03175e-14 0)
(3 1.90324e-13 0)
(3 4.98295e-13 0)
(3 1.2842e-12 0)
(3 3.24492e-12 0)
(3 8.06602e-12 0)
(3 1.97225e-11 0)
(3 4.74504e-11 0)
(3 1.12343e-10 0)
(3 2.61597e-10 0)
(3 5.99106e-10 0)
(3 1.34812e-09 0)
(3 6.12587e-17 0)
(3 4.46535e-17 0)
(3 -1.518e-16 0)
(3 -2.44398e-16 0)
(3 4.60229e-17 0)
(3 6.34644e-17 0)
(3 -1.28937e-16 0)
(3 -3.50961e-16 0)
(3 -4.21671e-16 0)
(3 -3.40874e-16 0)
(3 1.81977e-16 0)
(3 8.60137e-16 0)
(3 2.4677e-15 0)
(3 7.16404e-15 0)
(3 1.98189e-14 0)
(3 5.42272e-14 0)
(3 1.42927e-13 0)
(3 3.67332e-13 0)
(3 9.17835e-13 0)
(3 2.24981e-12 0)
(3 5.40778e-12 0)
(3 1.27732e-11 0)
(3 2.96519e-11 0)
(3 6.76582e-11 0)
(3 1.517e-10 0)
(3 2.42725e-17 0)
(3 8.17033e-18 0)
(3 -1.82347e-17 0)
(3 -3.21172e-18 0)
(3 4.66306e-18 0)
(3 1.07888e-16 0)
(3 3.33978e-17 0)
(3 -5.21312e-17 0)
(3 -2.81597e-16 0)
(3 -3.85209e-16 0)
(3 -4.44856e-16 0)
(3 -6.6048e-16 0)
(3 -5.34434e-16 0)
(3 -4.74203e-18 0)
(3 1.44883e-15 0)
(3 4.997e-15 0)
(3 1.39494e-14 0)
(3 3.75204e-14 0)
(3 9.53948e-14 0)
(3 2.38746e-13 0)
(3 5.78137e-13 0)
(3 1.37281e-12 0)
(3 3.19192e-12 0)
(3 7.28563e-12 0)
(3 1.63332e-11 0)
(3 -1.66905e-16 0)
(3 -1.21019e-16 0)
(3 -6.06037e-17 0)
(3 -6.99823e-17 0)
(3 -8.1256e-17 0)
(3 -6.46828e-17 0)
(3 6.10348e-17 0)
(3 -3.36628e-17 0)
(3 -1.52869e-16 0)
(3 -1.6682e-16 0)
(3 -3.93093e-16 0)
(3 -4.4704e-16 0)
(3 -3.18304e-16 0)
(3 -2.63597e-16 0)
(3 -1.46666e-16 0)
(3 3.26729e-16 0)
(3 1.00429e-15 0)
(3 2.86997e-15 0)
(3 8.44427e-15 0)
(3 2.3291e-14 0)
(3 5.79146e-14 0)
(3 1.42836e-13 0)
(3 3.32704e-13 0)
(3 7.68797e-13 0)
(3 1.72341e-12 0)
(3 3.96743e-17 0)
(3 9.37022e-17 0)
(3 1.52183e-16 0)
(3 1.67045e-16 0)
(3 3.97156e-16 0)
(3 8.11595e-16 0)
(3 1.07612e-15 0)
(3 1.0081e-15 0)
(3 1.03919e-15 0)
(3 7.93374e-16 0)
(3 5.02082e-16 0)
(3 3.98577e-16 0)
(3 2.88943e-16 0)
(3 2.65342e-16 0)
(3 4.13629e-16 0)
(3 8.70116e-16 0)
(3 1.65387e-15 0)
(3 2.32759e-15 0)
(3 3.06455e-15 0)
(3 4.20564e-15 0)
(3 6.79627e-15 0)
(3 1.37451e-14 0)
(3 3.1323e-14 0)
(3 7.3469e-14 0)
(3 1.67773e-13 0)
(3 -6.75763e-19 0)
(3 -1.71091e-16 0)
(3 -1.34973e-16 0)
(3 1.96712e-18 0)
(3 7.61305e-17 0)
(3 2.02212e-16 0)
(3 2.25444e-16 0)
(3 2.31685e-16 0)
(3 3.60773e-16 0)
(3 4.58668e-16 0)
(3 5.66772e-16 0)
(3 6.05791e-16 0)
(3 5.51037e-16 0)
(3 5.84711e-16 0)
(3 8.08392e-16 0)
(3 1.08232e-15 0)
(3 1.65505e-15 0)
(3 2.33344e-15 0)
(3 2.67662e-15 0)
(3 2.99089e-15 0)
(3 3.21419e-15 0)
(3 3.80445e-15 0)
(3 4.98397e-15 0)
(3 8.23895e-15 0)
(3 1.67076e-14 0)
(3 3.06581e-17 0)
(3 -1.41794e-16 0)
(3 -1.62172e-16 0)
(3 -5.8698e-17 0)
(3 -1.07507e-16 0)
(3 -2.52982e-16 0)
(3 -2.06679e-16 0)
(3 5.84743e-17 0)
(3 1.0614e-16 0)
(3 2.77658e-16 0)
(3 5.1208e-16 0)
(3 5.21449e-16 0)
(3 4.15345e-16 0)
(3 4.93624e-16 0)
(3 4.92215e-16 0)
(3 3.49899e-16 0)
(3 -3.26031e-17 0)
(3 -2.51324e-17 0)
(3 2.19959e-16 0)
(3 6.26223e-16 0)
(3 1.20821e-15 0)
(3 1.74587e-15 0)
(3 2.0147e-15 0)
(3 2.2348e-15 0)
(3 2.47237e-15 0)
(3 -5.20534e-17 0)
(3 -9.12173e-18 0)
(3 7.21709e-17 0)
(3 1.7543e-16 0)
(3 2.16705e-16 0)
(3 1.41889e-16 0)
(3 1.54024e-16 0)
(3 2.62552e-16 0)
(3 2.03961e-16 0)
(3 2.55639e-16 0)
(3 2.56428e-16 0)
(3 2.68498e-16 0)
(3 3.35023e-16 0)
(3 2.89223e-16 0)
(3 2.92585e-16 0)
(3 1.92982e-16 0)
(3 1.12367e-16 0)
(3 1.23968e-16 0)
(3 1.46587e-16 0)
(3 2.82892e-16 0)
(3 4.97637e-16 0)
(3 5.73108e-16 0)
(3 6.60985e-16 0)
(3 5.25443e-16 0)
(3 3.78136e-16 0)
(3 -1.68407e-16 0)
(3 -1.18171e-16 0)
(3 -1.17946e-16 0)
(3 -2.41244e-17 0)
(3 1.10798e-16 0)
(3 1.74629e-16 0)
(3 2.20351e-17 0)
(3 -1.27531e-16 0)
(3 -1.60208e-16 0)
(3 -1.93943e-16 0)
(3 -3.303e-16 0)
(3 -3.92262e-16 0)
(3 -3.38998e-16 0)
(3 -4.79383e-16 0)
(3 -4.93488e-16 0)
(3 -4.6534e-16 0)
(3 -2.01605e-16 0)
(3 1.10131e-17 0)
(3 1.28756e-16 0)
(3 4.11094e-16 0)
(3 6.23118e-16 0)
(3 7.24659e-16 0)
(3 7.13948e-16 0)
(3 6.55726e-16 0)
(3 7.66581e-16 0)
(3 1.91418e-16 0)
(3 1.62429e-16 0)
(3 -3.7978e-17 0)
(3 -4.13865e-16 0)
(3 -5.61258e-16 0)
(3 -4.91895e-16 0)
(3 -4.32435e-16 0)
(3 -4.25729e-16 0)
(3 -5.77934e-16 0)
(3 -8.09678e-16 0)
(3 -9.6463e-16 0)
(3 -9.86194e-16 0)
(3 -1.04994e-15 0)
(3 -9.87387e-16 0)
(3 -1.11109e-15 0)
(3 -9.81517e-16 0)
(3 -9.18897e-16 0)
(3 -7.3222e-16 0)
(3 -4.33061e-16 0)
(3 -3.42588e-16 0)
(3 -3.49173e-16 0)
(3 -3.08121e-16 0)
(3 -3.1157e-16 0)
(3 -1.99627e-16 0)
(3 -1.87331e-16 0)
(3 1.68097e-16 0)
(3 2.2839e-16 0)
(3 4.49776e-16 0)
(3 5.23748e-16 0)
(3 3.76135e-16 0)
(3 2.16747e-16 0)
(3 1.53006e-16 0)
(3 2.0545e-16 0)
(3 1.55385e-16 0)
(3 7.71468e-17 0)
(3 1.31361e-16 0)
(3 1.66645e-16 0)
(3 1.07773e-16 0)
(3 -1.17743e-16 0)
(3 -1.41218e-16 0)
(3 2.60048e-20 0)
(3 2.54964e-17 0)
(3 1.21551e-16 0)
(3 2.49427e-16 0)
(3 3.58786e-16 0)
(3 3.87465e-16 0)
(3 4.00419e-16 0)
(3 4.6402e-16 0)
(3 6.34774e-16 0)
(3 7.51177e-16 0)
(3 -1.41489e-16 0)
(3 8.64602e-17 0)
(3 3.74463e-16 0)
(3 6.77259e-16 0)
(3 7.63366e-16 0)
(3 6.82761e-16 0)
(3 5.86123e-16 0)
(3 4.52397e-16 0)
(3 3.29147e-16 0)
(3 3.03749e-16 0)
(3 4.26883e-16 0)
(3 5.29609e-16 0)
(3 4.58211e-16 0)
(3 4.11911e-16 0)
(3 5.53785e-16 0)
(3 5.96161e-16 0)
(3 6.30753e-16 0)
(3 5.57944e-16 0)
(3 4.98567e-16 0)
(3 6.04783e-16 0)
(3 5.30273e-16 0)
(3 4.79334e-16 0)
(3 6.24687e-16 0)
(3 8.12335e-16 0)
(3 8.49737e-16 0)
(3 -2.59355e-16 0)
(3 -4.46863e-16 0)
(3 -7.06546e-16 0)
(3 -7.6332e-16 0)
(3 -6.23212e-16 0)
(3 -5.02122e-16 0)
(3 -1.53332e-16 0)
(3 1.19613e-16 0)
(3 3.46996e-16 0)
(3 5.52606e-16 0)
(3 6.43867e-16 0)
(3 6.09582e-16 0)
(3 5.39597e-16 0)
(3 6.52061e-16 0)
(3 4.00013e-16 0)
(3 -2.19908e-16 0)
(3 -6.46757e-16 0)
(3 -9.82345e-16 0)
(3 -1.0842e-15 0)
(3 -1.10237e-15 0)
(3 -9.7238e-16 0)
(3 -7.93394e-16 0)
(3 -5.82944e-16 0)
(3 -5.78134e-16 0)
(3 -6.61354e-16 0)
(3 2.90023e-17 0)
(3 -9.18096e-17 0)
(3 -3.1418e-16 0)
(3 -6.04798e-16 0)
(3 -7.29808e-16 0)
(3 -7.8689e-16 0)
(3 -6.46103e-16 0)
(3 -2.44804e-16 0)
(3 2.75067e-16 0)
(3 6.70622e-16 0)
(3 7.04047e-16 0)
(3 5.93771e-16 0)
(3 5.83542e-16 0)
(3 6.10289e-16 0)
(3 4.64641e-16 0)
(3 2.31699e-16 0)
(3 8.38468e-17 0)
(3 -2.89487e-17 0)
(3 -3.10542e-16 0)
(3 -7.47494e-16 0)
(3 -1.05444e-15 0)
(3 -1.29376e-15 0)
(3 -1.42864e-15 0)
(3 -1.60807e-15 0)
(3 -1.5754e-15 0)
(3 2.03619e-16 0)
(3 2.62874e-16 0)
(3 3.60407e-16 0)
(3 1.04918e-16 0)
(3 1.73435e-17 0)
(3 -3.55426e-17 0)
(3 -2.92446e-17 0)
(3 1.29425e-17 0)
(3 2.50882e-16 0)
(3 5.19851e-16 0)
(3 5.40247e-16 0)
(3 5.06497e-16 0)
(3 6.47505e-16 0)
(3 6.42292e-16 0)
(3 6.6681e-16 0)
(3 7.4911e-16 0)
(3 8.43263e-16 0)
(3 8.21974e-16 0)
(3 6.48625e-16 0)
(3 4.29261e-16 0)
(3 1.7162e-16 0)
(3 -2.20542e-16 0)
(3 -6.04503e-16 0)
(3 -8.16294e-16 0)
(3 -9.09613e-16 0)
(3 1.22421e-16 0)
(3 1.86767e-16 0)
(3 1.93189e-16 0)
(3 3.07929e-16 0)
(3 4.69202e-16 0)
(3 5.98615e-16 0)
(3 5.48736e-16 0)
(3 4.14085e-16 0)
(3 4.2184e-16 0)
(3 3.92397e-16 0)
(3 3.9147e-16 0)
(3 4.5743e-16 0)
(3 5.61359e-16 0)
(3 4.97871e-16 0)
(3 3.85986e-16 0)
(3 4.69047e-16 0)
(3 3.97748e-16 0)
(3 3.19161e-16 0)
(3 2.336e-16 0)
(3 2.46891e-16 0)
(3 1.97612e-16 0)
(3 8.53081e-17 0)
(3 -2.62802e-16 0)
(3 -4.53747e-16 0)
(3 -6.79753e-16 0)
(3 9.8314e-17 0)
(3 2.35142e-16 0)
(3 6.52051e-17 0)
(3 7.75759e-17 0)
(3 1.13039e-16 0)
(3 2.42353e-16 0)
(3 2.28636e-16 0)
(3 1.97496e-16 0)
(3 2.49847e-16 0)
(3 2.58591e-16 0)
(3 4.76164e-16 0)
(3 7.64852e-16 0)
(3 8.73898e-16 0)
(3 9.25913e-16 0)
(3 1.09127e-15 0)
(3 1.30873e-15 0)
(3 1.1076e-15 0)
(3 7.24016e-16 0)
(3 1.68392e-16 0)
(3 -2.35615e-16 0)
(3 -4.55544e-16 0)
(3 -5.46359e-16 0)
(3 -5.53598e-16 0)
(3 -4.63482e-16 0)
(3 -1.42518e-16 0)
(3 4.38504e-17 0)
(3 -3.91551e-17 0)
(3 -1.70915e-16 0)
(3 -1.20989e-16 0)
(3 -1.51539e-16 0)
(3 -1.04295e-16 0)
(3 -3.32811e-17 0)
(3 1.07038e-16 0)
(3 -6.48364e-17 0)
(3 -2.44563e-16 0)
(3 -1.78649e-16 0)
(3 -6.38078e-17 0)
(3 1.2423e-16 0)
(3 4.48947e-16 0)
(3 7.13871e-16 0)
(3 7.16266e-16 0)
(3 7.87984e-16 0)
(3 7.7433e-16 0)
(3 8.34398e-16 0)
(3 7.56901e-16 0)
(3 7.85679e-16 0)
(3 8.33111e-16 0)
(3 9.58577e-16 0)
(3 9.02722e-16 0)
(3 9.23934e-16 0)
(3 -1.76478e-16 0)
(3 -2.89161e-16 0)
(3 -3.14723e-16 0)
(3 -4.74483e-16 0)
(3 -8.37557e-16 0)
(3 -1.01232e-15 0)
(3 -1.03996e-15 0)
(3 -9.38903e-16 0)
(3 -9.12852e-16 0)
(3 -8.56658e-16 0)
(3 -9.08041e-16 0)
(3 -8.57322e-16 0)
(3 -6.71309e-16 0)
(3 -3.59074e-16 0)
(3 -3.01021e-16 0)
(3 -3.44073e-16 0)
(3 -2.59939e-16 0)
(3 3.26666e-17 0)
(3 4.02514e-16 0)
(3 4.7551e-16 0)
(3 4.52551e-16 0)
(3 5.204e-16 0)
(3 3.91205e-16 0)
(3 7.72914e-17 0)
(3 -3.23774e-16 0)
(3 -6.09262e-17 0)
(3 1.91825e-17 0)
(3 2.56683e-16 0)
(3 2.60397e-16 0)
(3 9.57973e-17 0)
(3 4.90636e-17 0)
(3 -8.85297e-17 0)
(3 -3.65725e-16 0)
(3 -3.11467e-16 0)
(3 -2.6633e-16 0)
(3 -1.96644e-16 0)
(3 -3.514e-16 0)
(3 -5.80434e-16 0)
(3 -6.15492e-16 0)
(3 -5.19966e-16 0)
(3 -3.49569e-16 0)
(3 -2.82244e-16 0)
(3 -3.15016e-16 0)
(3 -3.61577e-16 0)
(3 -4.67504e-16 0)
(3 -8.70004e-16 0)
(3 -1.03384e-15 0)
(3 -9.66605e-16 0)
(3 -7.47372e-16 0)
(3 -5.40504e-16 0)
(3 -1.77492e-17 0)
(3 -1.82447e-17 0)
(3 7.49288e-17 0)
(3 4.73601e-16 0)
(3 9.15803e-16 0)
(3 1.02498e-15 0)
(3 8.58409e-16 0)
(3 5.98012e-16 0)
(3 1.9004e-16 0)
(3 -9.53905e-17 0)
(3 -4.4948e-16 0)
(3 -5.85037e-16 0)
(3 -7.5424e-16 0)
(3 -7.8093e-16 0)
(3 -6.9761e-16 0)
(3 -5.15529e-16 0)
(3 -3.22483e-16 0)
(3 -2.75475e-16 0)
(3 -1.8039e-16 0)
(3 3.37077e-17 0)
(3 1.74066e-16 0)
(3 2.01347e-16 0)
(3 1.12873e-16 0)
(3 3.55458e-16 0)
(3 6.28029e-16 0)
(3 -7.96738e-18 0)
(3 1.20247e-16 0)
(3 1.32974e-16 0)
(3 1.53293e-16 0)
(3 2.65885e-16 0)
(3 2.00735e-16 0)
(3 3.09865e-16 0)
(3 4.09281e-16 0)
(3 2.9637e-16 0)
(3 1.20938e-16 0)
(3 -4.13333e-17 0)
(3 -1.76464e-16 0)
(3 -3.34286e-16 0)
(3 -5.0454e-16 0)
(3 -5.9921e-16 0)
(3 -6.36268e-16 0)
(3 -6.3438e-16 0)
(3 -3.76e-16 0)
(3 -7.59225e-17 0)
(3 3.53502e-16 0)
(3 7.96139e-16 0)
(3 9.6402e-16 0)
(3 8.9097e-16 0)
(3 7.35277e-16 0)
(3 3.79482e-16 0)
(3 7.91648e-17 0)
(3 3.23731e-16 0)
(3 3.496e-16 0)
(3 3.2948e-16 0)
(3 4.34978e-16 0)
(3 3.68268e-16 0)
(3 3.63526e-16 0)
(3 3.189e-16 0)
(3 3.00788e-16 0)
(3 2.86369e-16 0)
(3 2.83997e-16 0)
(3 2.5847e-16 0)
(3 2.34296e-16 0)
(3 2.54371e-17 0)
(3 -8.95324e-17 0)
(3 -6.09755e-17 0)
(3 6.41035e-17 0)
(3 2.48062e-16 0)
(3 2.80231e-16 0)
(3 2.34145e-16 0)
(3 3.2004e-16 0)
(3 3.74284e-16 0)
(3 6.82199e-16 0)
(3 8.18804e-16 0)
(3 7.04051e-16 0)
(3 -2.30868e-16 0)
(3 -4.46762e-16 0)
(3 -4.09133e-16 0)
(3 -1.92157e-16 0)
(3 -1.90135e-16 0)
(3 -1.85762e-16 0)
(3 -2.87818e-16 0)
(3 -3.94523e-16 0)
(3 -3.71411e-16 0)
(3 -2.5075e-16 0)
(3 -2.7025e-16 0)
(3 -7.49028e-17 0)
(3 5.04353e-17 0)
(3 -1.07309e-16 0)
(3 -1.4547e-16 0)
(3 -3.15323e-16 0)
(3 -4.5179e-16 0)
(3 -6.20569e-16 0)
(3 -6.47702e-16 0)
(3 -7.82532e-16 0)
(3 -7.61216e-16 0)
(3 -5.81464e-16 0)
(3 -3.97375e-16 0)
(3 -2.75706e-16 0)
(3 -8.61185e-17 0)
(3 -5.83721e-17 0)
(3 -3.01854e-16 0)
(3 -2.93163e-16 0)
(3 -4.71689e-16 0)
(3 -9.81051e-16 0)
(3 -1.27011e-15 0)
(3 -1.25446e-15 0)
(3 -1.12193e-15 0)
(3 -9.55199e-16 0)
(3 -7.23252e-16 0)
(3 -5.34622e-16 0)
(3 -5.28391e-16 0)
(3 -5.31889e-16 0)
(3 -3.7472e-16 0)
(3 -2.38876e-16 0)
(3 -2.33616e-16 0)
(3 -1.89511e-16 0)
(3 -3.21011e-16 0)
(3 -4.73798e-16 0)
(3 -6.1776e-16 0)
(3 -7.99849e-16 0)
(3 -7.71856e-16 0)
(3 -7.03375e-16 0)
(3 -6.44941e-16 0)
(3 -4.58643e-16 0)
(3 1.7606e-16 0)
(3 2.45128e-16 0)
(3 1.0705e-17 0)
(3 -3.48983e-16 0)
(3 -6.35509e-16 0)
(3 -6.93026e-16 0)
(3 -7.79744e-16 0)
(3 -6.83999e-16 0)
(3 -4.52462e-16 0)
(3 -4.76159e-16 0)
(3 -4.19791e-16 0)
(3 -6.41067e-16 0)
(3 -8.19881e-16 0)
(3 -8.13193e-16 0)
(3 -7.7559e-16 0)
(3 -5.27213e-16 0)
(3 -1.98478e-16 0)
(3 3.09912e-17 0)
(3 -1.10043e-16 0)
(3 -1.50882e-16 0)
(3 -1.26536e-16 0)
(3 -1.83026e-16 0)
(3 -2.86342e-17 0)
(3 4.57325e-17 0)
(3 1.36874e-16 0)
(3 -2.36631e-17 0)
(3 -1.38413e-17 0)
(3 -3.00916e-16 0)
(3 -4.8549e-16 0)
(3 -4.89154e-16 0)
(3 -3.88597e-16 0)
(3 -4.81098e-16 0)
(3 -4.52075e-16 0)
(3 -3.15478e-16 0)
(3 -4.25332e-16 0)
(3 -4.21761e-16 0)
(3 -5.01651e-16 0)
(3 -6.29794e-16 0)
(3 -8.13795e-16 0)
(3 -9.12174e-16 0)
(3 -7.69614e-16 0)
(3 -5.86664e-16 0)
(3 -3.11707e-16 0)
(3 -1.70267e-16 0)
(3 1.2373e-17 0)
(3 7.2836e-17 0)
(3 3.8709e-17 0)
(3 -3.4993e-17 0)
(3 -5.06495e-17 0)
(3 -2.1443e-16 0)
(1.30873 1.39399 0)
(1.92957 1.22683 0)
(2.29008 0.988178 0)
(2.51613 0.73765 0)
(2.66195 0.502248 0)
(2.75699 0.304015 0)
(2.82954 0.15529 0)
(2.8853 0.0527464 0)
(2.92148 -0.00844762 0)
(2.94545 -0.0343819 0)
(2.96278 -0.0394717 0)
(2.97501 -0.0353962 0)
(2.9835 -0.0284877 0)
(2.98886 -0.020303 0)
(2.99191 -0.0128182 0)
(2.99369 -0.00727796 0)
(2.99489 -0.00380376 0)
(2.9958 -0.00178025 0)
(2.99663 -0.000576696 0)
(2.99751 6.4942e-05 0)
(2.99831 0.000288564 0)
(2.99894 0.000269656 0)
(2.99938 0.000194957 0)
(2.99966 0.000127786 0)
(2.99982 7.83301e-05 0)
(2.99991 4.49862e-05 0)
(2.99996 2.45406e-05 0)
(2.99998 1.28145e-05 0)
(2.99999 6.44752e-06 0)
(3 3.1418e-06 0)
(3 1.48658e-06 0)
(3 6.84538e-07 0)
(3 3.0743e-07 0)
(3 1.34906e-07 0)
(3 5.79403e-08 0)
(3 2.43829e-08 0)
(3 1.00645e-08 0)
(3 4.07877e-09 0)
(3 1.62416e-09 0)
(3 6.36041e-10 0)
(3 2.45091e-10 0)
(3 9.30016e-11 0)
(3 3.47658e-11 0)
(3 1.28127e-11 0)
(3 4.65747e-12 0)
(3 1.67057e-12 0)
(3 5.91873e-13 0)
(3 2.06915e-13 0)
(3 7.11324e-14 0)
(3 2.38637e-14 0)
(3 7.55301e-15 0)
(3 2.24618e-15 0)
(3 5.28149e-16 0)
(3 -6.85045e-17 0)
(3 -6.86034e-18 0)
(3 1.51476e-16 0)
(3 3.56163e-16 0)
(3 7.1667e-16 0)
(3 8.2914e-16 0)
(3 7.37034e-16 0)
(3 6.76727e-16 0)
(3 5.66707e-16 0)
(3 3.82501e-16 0)
(3 3.76197e-16 0)
(3 4.1388e-16 0)
(3 3.42966e-16 0)
(3 1.97365e-16 0)
(3 -1.91442e-16 0)
(3 -5.96197e-16 0)
(3 -9.11309e-16 0)
(3 -1.02844e-15 0)
(3 -9.13312e-16 0)
(3 -8.0642e-16 0)
(3 -6.25819e-16 0)
(3 -4.20275e-16 0)
(3 -3.73807e-16 0)
(3 -2.87608e-16 0)
(3 -1.1229e-16 0)
(3 7.84557e-17 0)
(3 1.23736e-16 0)
(3 1.65573e-17 0)
(3 -1.59527e-16 0)
(3 -1.98122e-16 0)
(3 -8.93853e-17 0)
(3 2.57415e-18 0)
(3 -5.29016e-17 0)
(3 -1.03041e-16 0)
(3 -9.5676e-17 0)
(3 2.79918e-17 0)
(3 6.61725e-17 0)
(3 1.47101e-16 0)
(3 2.49079e-16 0)
(3 2.96309e-16 0)
(3 4.82378e-16 0)
(3 5.84337e-16 0)
(3 5.4583e-16 0)
(3 4.63193e-16 0)
(3 3.70653e-16 0)
(3 2.30587e-16 0)
(3 2.38963e-16 0)
(1.58874 1.38067 0)
(2.02227 1.14853 0)
(2.32529 0.874788 0)
(2.53816 0.616818 0)
(2.69068 0.393444 0)
(2.80366 0.218337 0)
(2.89099 0.0951627 0)
(2.95966 0.013514 0)
(3.01303 -0.0355027 0)
(3.0517 -0.0579496 0)
(3.0745 -0.0642245 0)
(3.08247 -0.0609914 0)
(3.08028 -0.0508613 0)
(3.07115 -0.0382629 0)
(3.05698 -0.0265273 0)
(3.04147 -0.0173316 0)
(3.02786 -0.0109143 0)
(3.01755 -0.00663317 0)
(3.01041 -0.00380059 0)
(3.00578 -0.00200404 0)
(3.00298 -0.00101245 0)
(3.00145 -0.000511151 0)
(3.0007 -0.000254882 0)
(3.00034 -0.000122784 0)
(3.00016 -5.71341e-05 0)
(3.00008 -2.62488e-05 0)
(3.00004 -1.18269e-05 0)
(3.00002 -5.27293e-06 0)
(3.00001 -2.33073e-06 0)
(3 -1.01756e-06 0)
(3 -4.38697e-07 0)
(3 -1.87633e-07 0)
(3 -7.91939e-08 0)
(3 -3.28923e-08 0)
(3 -1.34445e-08 0)
(3 -5.40899e-09 0)
(3 -2.14119e-09 0)
(3 -8.34635e-10 0)
(3 -3.20439e-10 0)
(3 -1.21188e-10 0)
(3 -4.51624e-11 0)
(3 -1.6589e-11 0)
(3 -6.01101e-12 0)
(3 -2.1472e-12 0)
(3 -7.57259e-13 0)
(3 -2.63723e-13 0)
(3 -9.05185e-14 0)
(3 -3.05599e-14 0)
(3 -1.00972e-14 0)
(3 -3.35405e-15 0)
(3 -1.19752e-15 0)
(3 -2.01882e-16 0)
(3 1.32161e-16 0)
(3 3.37374e-16 0)
(3 5.98759e-16 0)
(3 8.49566e-16 0)
(3 9.52413e-16 0)
(3 9.74339e-16 0)
(3 9.13639e-16 0)
(3 6.70582e-16 0)
(3 4.42483e-16 0)
(3 1.35096e-16 0)
(3 -3.64808e-16 0)
(3 -4.01274e-16 0)
(3 -1.51428e-16 0)
(3 2.24127e-16 0)
(3 5.09622e-16 0)
(3 5.70224e-16 0)
(3 5.40317e-16 0)
(3 2.00569e-16 0)
(3 -2.99194e-17 0)
(3 1.22902e-17 0)
(3 1.12583e-16 0)
(3 8.60543e-17 0)
(3 1.17727e-16 0)
(3 6.78288e-17 0)
(3 1.18963e-16 0)
(3 1.82306e-16 0)
(3 2.34619e-17 0)
(3 -4.05824e-16 0)
(3 -8.88378e-16 0)
(3 -1.35935e-15 0)
(3 -1.8092e-15 0)
(3 -1.9722e-15 0)
(3 -1.98874e-15 0)
(3 -1.93258e-15 0)
(3 -1.79979e-15 0)
(3 -1.6658e-15 0)
(3 -1.50002e-15 0)
(3 -1.529e-15 0)
(3 -1.54704e-15 0)
(3 -1.64085e-15 0)
(3 -1.51379e-15 0)
(3 -1.17591e-15 0)
(3 -8.74067e-16 0)
(3 -5.61247e-16 0)
(3 -3.04631e-16 0)
(3 -2.13258e-16 0)
(3 -1.08389e-16 0)
(3 -3.81132e-18 0)
(1.91436 1.25619 0)
(2.14622 1.1427 0)
(2.40221 0.948682 0)
(2.59948 0.756035 0)
(2.74797 0.589175 0)
(2.86279 0.452425 0)
(2.95316 0.346093 0)
(3.02207 0.266323 0)
(3.07142 0.208757 0)
(3.10058 0.166266 0)
(3.11008 0.131098 0)
(3.10629 0.10215 0)
(3.09396 0.0788216 0)
(3.07544 0.0581222 0)
(3.05493 0.0401309 0)
(3.03639 0.0258823 0)
(3.02217 0.015684 0)
(3.01257 0.00892875 0)
(3.00663 0.00475915 0)
(3.00318 0.00236577 0)
(3.00132 0.00111564 0)
(3.00048 0.000535459 0)
(3.00015 0.000260966 0)
(3.00004 0.000127777 0)
(3 6.22505e-05 0)
(3 3.00552e-05 0)
(3 1.42885e-05 0)
(3 6.66973e-06 0)
(3 3.05357e-06 0)
(3 1.37049e-06 0)
(3 6.02865e-07 0)
(3 2.59939e-07 0)
(3 1.09899e-07 0)
(3 4.55839e-08 0)
(3 1.85493e-08 0)
(3 7.413e-09 0)
(3 2.91188e-09 0)
(3 1.12489e-09 0)
(3 4.2777e-10 0)
(3 1.60167e-10 0)
(3 5.91108e-11 0)
(3 2.15004e-11 0)
(3 7.71434e-12 0)
(3 2.73152e-12 0)
(3 9.54996e-13 0)
(3 3.30313e-13 0)
(3 1.13306e-13 0)
(3 3.91446e-14 0)
(3 1.40424e-14 0)
(3 5.69137e-15 0)
(3 2.84683e-15 0)
(3 1.6091e-15 0)
(3 9.85208e-16 0)
(3 7.05943e-16 0)
(3 4.43925e-16 0)
(3 1.80774e-16 0)
(3 -1.62612e-16 0)
(3 -5.97259e-16 0)
(3 -6.59624e-16 0)
(3 -6.40779e-16 0)
(3 -6.37316e-16 0)
(3 -5.6385e-16 0)
(3 -3.50281e-16 0)
(3 -2.51209e-16 0)
(3 -6.99096e-17 0)
(3 3.66361e-16 0)
(3 7.49113e-16 0)
(3 1.23582e-15 0)
(3 1.60053e-15 0)
(3 2.02328e-15 0)
(3 2.33575e-15 0)
(3 2.57503e-15 0)